 Entering Gaussian System, Link 0=g16
 Input=h35cl.com
 Output=h35cl.log
 Initial command:
 /usr/bin/g16/l1.exe "/scratch-data/g16-scratch/Gau-131748.inp" -scrdir="/scratch-data/g16-scratch/"
 Entering Link 1 = /usr/bin/g16/l1.exe PID=    131750.
  
 Copyright (c) 1988-2017, Gaussian, Inc.  All Rights Reserved.
  
 This is part of the Gaussian(R) 16 program.  It is based on
 the Gaussian(R) 09 system (copyright 2009, Gaussian, Inc.),
 the Gaussian(R) 03 system (copyright 2003, Gaussian, Inc.),
 the Gaussian(R) 98 system (copyright 1998, Gaussian, Inc.),
 the Gaussian(R) 94 system (copyright 1995, Gaussian, Inc.),
 the Gaussian 92(TM) system (copyright 1992, Gaussian, Inc.),
 the Gaussian 90(TM) system (copyright 1990, Gaussian, Inc.),
 the Gaussian 88(TM) system (copyright 1988, Gaussian, Inc.),
 the Gaussian 86(TM) system (copyright 1986, Carnegie Mellon
 University), and the Gaussian 82(TM) system (copyright 1983,
 Carnegie Mellon University). Gaussian is a federally registered
 trademark of Gaussian, Inc.
  
 This software contains proprietary and confidential information,
 including trade secrets, belonging to Gaussian, Inc.
  
 This software is provided under written license and may be
 used, copied, transmitted, or stored only in accord with that
 written license.
  
 The following legend is applicable only to US Government
 contracts under FAR:
  
                    RESTRICTED RIGHTS LEGEND
  
 Use, reproduction and disclosure by the US Government is
 subject to restrictions as set forth in subparagraphs (a)
 and (c) of the Commercial Computer Software - Restricted
 Rights clause in FAR 52.227-19.
  
 Gaussian, Inc.
 340 Quinnipiac St., Bldg. 40, Wallingford CT 06492
  
  
 ---------------------------------------------------------------
 Warning -- This program may not be used in any manner that
 competes with the business of Gaussian, Inc. or will provide
 assistance to any competitor of Gaussian, Inc.  The licensee
 of this program is prohibited from giving any competitor of
 Gaussian, Inc. access to this program.  By using this program,
 the user acknowledges that Gaussian, Inc. is engaged in the
 business of creating and licensing software in the field of
 computational chemistry and represents and warrants to the
 licensee that it is not a competitor of Gaussian, Inc. and that
 it will not use this program in any manner prohibited above.
 ---------------------------------------------------------------
  

 Cite this work as:
 Gaussian 16, Revision B.01,
 M. J. Frisch, G. W. Trucks, H. B. Schlegel, G. E. Scuseria, 
 M. A. Robb, J. R. Cheeseman, G. Scalmani, V. Barone, 
 G. A. Petersson, H. Nakatsuji, X. Li, M. Caricato, A. V. Marenich, 
 J. Bloino, B. G. Janesko, R. Gomperts, B. Mennucci, H. P. Hratchian, 
 J. V. Ortiz, A. F. Izmaylov, J. L. Sonnenberg, D. Williams-Young, 
 F. Ding, F. Lipparini, F. Egidi, J. Goings, B. Peng, A. Petrone, 
 T. Henderson, D. Ranasinghe, V. G. Zakrzewski, J. Gao, N. Rega, 
 G. Zheng, W. Liang, M. Hada, M. Ehara, K. Toyota, R. Fukuda, 
 J. Hasegawa, M. Ishida, T. Nakajima, Y. Honda, O. Kitao, H. Nakai, 
 T. Vreven, K. Throssell, J. A. Montgomery, Jr., J. E. Peralta, 
 F. Ogliaro, M. J. Bearpark, J. J. Heyd, E. N. Brothers, K. N. Kudin, 
 V. N. Staroverov, T. A. Keith, R. Kobayashi, J. Normand, 
 K. Raghavachari, A. P. Rendell, J. C. Burant, S. S. Iyengar, 
 J. Tomasi, M. Cossi, J. M. Millam, M. Klene, C. Adamo, R. Cammi, 
 J. W. Ochterski, R. L. Martin, K. Morokuma, O. Farkas, 
 J. B. Foresman, and D. J. Fox, Gaussian, Inc., Wallingford CT, 2016.
 
 ******************************************
 Gaussian 16:  ES64L-G16RevB.01 20-Dec-2017
                17-Apr-2023 
 ******************************************
 %nproc=2
 Will use up to    2 processors via shared memory.
 %mem=800MB
 ----------------------------------------------------
 # MP2 def2qzvpp # opt freq=(anharm,vibrot) scf=tight
 ----------------------------------------------------
 1/18=20,19=15,38=1,80=1/1,3;
 2/9=110,12=2,17=6,18=5,40=1/2;
 3/5=45,7=202,11=9,25=1,30=1,71=1/1,2,3;
 4//1;
 5/5=2,32=2,38=5/2;
 8/6=4,10=1/1;
 9/15=2,16=-3/6;
 10/5=1/2;
 6/7=2,8=2,9=2,10=2/1;
 7/12=2/1,2,3,16;
 1/18=20,19=15,80=1/3(2);
 2/9=110/2;
 99//99;
 2/9=110/2;
 3/5=45,7=202,11=9,25=1,30=1,71=1/1,2,3;
 4/5=5,16=3,69=1/1;
 5/5=2,32=2,38=5/2;
 8/6=4,10=1/1;
 9/15=2,16=-3/6;
 10/5=1/2;
 7/12=2/1,2,3,16;
 1/18=20,19=15,80=1/3(-8);
 2/9=110/2;
 6/7=2,8=2,9=2,10=2/1;
 99/9=10/99;
 -----
 H35Cl
 -----
 Symbolic Z-matrix:
 Charge =  0 Multiplicity = 1
 H(Iso=1)              0.        0.        0. 
 Cl(Iso=35)            0.        0.        1. 
 

 GradGradGradGradGradGradGradGradGradGradGradGradGradGradGradGradGradGrad
 Berny optimization.
 Initialization pass.
                           ----------------------------
                           !    Initial Parameters    !
                           ! (Angstroms and Degrees)  !
 --------------------------                            --------------------------
 ! Name  Definition              Value          Derivative Info.                !
 --------------------------------------------------------------------------------
 ! R1    R(1,2)                  1.0            estimate D2E/DX2                !
 --------------------------------------------------------------------------------
 Trust Radius=3.00D-01 FncErr=1.00D-07 GrdErr=1.00D-07 EigMax=2.50D+02 EigMin=1.00D-04
 Number of steps in this run=     20 maximum allowed number of steps=    100.
 GradGradGradGradGradGradGradGradGradGradGradGradGradGradGradGradGradGrad

                          Input orientation:                          
 ---------------------------------------------------------------------
 Center     Atomic      Atomic             Coordinates (Angstroms)
 Number     Number       Type             X           Y           Z
 ---------------------------------------------------------------------
      1          1           0        0.000000    0.000000    0.000000
      2         17           0        0.000000    0.000000    1.000000
 ---------------------------------------------------------------------
 Stoichiometry    ClH
 Framework group  C*V[C*(HCl)]
 Deg. of freedom     1
 Full point group                 C*V     NOp   4
 Largest Abelian subgroup         C2V     NOp   4
 Largest concise Abelian subgroup C1      NOp   1
                         Standard orientation:                         
 ---------------------------------------------------------------------
 Center     Atomic      Atomic             Coordinates (Angstroms)
 Number     Number       Type             X           Y           Z
 ---------------------------------------------------------------------
      1          1           0        0.000000    0.000000   -0.944444
      2         17           0        0.000000    0.000000    0.055556
 ---------------------------------------------------------------------
 Rotational constants (GHZ):           0.0000000         515.9073661         515.9073661
 Standard basis: def2QZVPP (5D, 7F)
 There are    55 symmetry adapted cartesian basis functions of A1  symmetry.
 There are    12 symmetry adapted cartesian basis functions of A2  symmetry.
 There are    27 symmetry adapted cartesian basis functions of B1  symmetry.
 There are    27 symmetry adapted cartesian basis functions of B2  symmetry.
 There are    43 symmetry adapted basis functions of A1  symmetry.
 There are    11 symmetry adapted basis functions of A2  symmetry.
 There are    23 symmetry adapted basis functions of B1  symmetry.
 There are    23 symmetry adapted basis functions of B2  symmetry.
   100 basis functions,   159 primitive gaussians,   121 cartesian basis functions
     9 alpha electrons        9 beta electrons
       nuclear repulsion energy         8.9960125856 Hartrees.
 NAtoms=    2 NActive=    2 NUniq=    2 SFac= 1.00D+00 NAtFMM=   60 NAOKFM=F Big=F
 Integral buffers will be    131072 words long.
 Raffenetti 1 integral format.
 Two-electron integral symmetry is turned on.
 One-electron integrals computed using PRISM.
   4 Symmetry operations used in ECPInt.
 ECPInt:  NShTT=     528 NPrTT=    1568 LenC2=     529 LenP2D=    1530.
 LDataN:  DoStor=T MaxTD1= 8 Len=  415
 NBasis=   100 RedAO= T EigKep=  1.67D-04  NBF=    43    11    23    23
 NBsUse=   100 1.00D-06 EigRej= -1.00D+00 NBFU=    43    11    23    23
 ExpMin= 8.03D-02 ExpMax= 1.47D+06 ExpMxC= 1.67D+03 IAcc=3 IRadAn=         5 AccDes= 0.00D+00
 Harris functional with IExCor=  205 and IRadAn=       5 diagonalized for initial guess.
 HarFok:  IExCor=  205 AccDes= 0.00D+00 IRadAn=         5 IDoV= 1 UseB2=F ITyADJ=14
 ICtDFT=  3500011 ScaDFX=  1.000000  1.000000  1.000000  1.000000
 FoFCou: FMM=F IPFlag=           0 FMFlag=      100000 FMFlg1=           0
         NFxFlg=           0 DoJE=T BraDBF=F KetDBF=T FulRan=T
         wScrn=  0.000000 ICntrl=       500 IOpCl=  0 I1Cent=   200000004 NGrid=           0
         NMat0=    1 NMatS0=      1 NMatT0=    0 NMatD0=    1 NMtDS0=    0 NMtDT0=    0
 Petite list used in FoFCou.
 Initial guess orbital symmetries:
       Occupied  (SG) (SG) (SG) (PI) (PI) (SG) (SG) (PI) (PI)
       Virtual   (SG) (SG) (SG) (PI) (PI) (PI) (PI) (DLTA) (DLTA)
                 (SG) (SG) (PI) (PI) (SG) (SG) (PI) (PI) (PI) (PI)
                 (DLTA) (DLTA) (SG) (DLTA) (DLTA) (PHI) (PHI) (SG)
                 (PI) (PI) (SG) (PI) (PI) (DLTA) (DLTA) (SG) (SG)
                 (PI) (PI) (DLTA) (DLTA) (SG) (PI) (PI) (SG) (PHI)
                 (PHI) (?A) (?A) (PI) (PI) (DLTA) (DLTA) (PHI)
                 (PHI) (SG) (DLTA) (DLTA) (PI) (PI) (SG) (PI) (PI)
                 (SG) (PHI) (PHI) (SG) (PI) (PI) (DLTA) (DLTA)
                 (SG) (DLTA) (DLTA) (PI) (PI) (SG) (SG) (PI) (PI)
                 (DLTA) (DLTA) (SG) (PI) (PI) (SG) (SG) (PI) (PI)
                 (SG) (SG) (SG)
 The electronic state of the initial guess is 1-SG.
 Keep R1 ints in memory in symmetry-blocked form, NReq=17322621.
 Requested convergence on RMS density matrix=1.00D-08 within 128 cycles.
 Requested convergence on MAX density matrix=1.00D-06.
 Requested convergence on             energy=1.00D-06.
 No special actions if energy rises.
 SCF Done:  E(RHF) =  -460.035774182     A.U. after    9 cycles
            NFock=  9  Conv=0.50D-08     -V/T= 1.9984
 ExpMin= 8.03D-02 ExpMax= 1.47D+06 ExpMxC= 1.67D+03 IAcc=3 IRadAn=         5 AccDes= 0.00D+00
 HarFok:  IExCor=  205 AccDes= 0.00D+00 IRadAn=         5 IDoV=-2 UseB2=F ITyADJ=14
 ICtDFT= 12500011 ScaDFX=  1.000000  1.000000  1.000000  1.000000
 Range of M.O.s used for correlation:     6   100
 NBasis=   100 NAE=     9 NBE=     9 NFC=     5 NFV=     0
 NROrb=     95 NOA=     4 NOB=     4 NVA=    91 NVB=    91

 **** Warning!!: The largest alpha MO coefficient is  0.19421715D+02

 Fully direct method using O(ONN) memory.
 JobTyp=1 Pass  1:  I=   6 to   9 NPSUse=  1 ParTrn=F ParDer=F DoDerP=T.
 Spin components of T(2) and E(2):
     alpha-alpha T2 =       0.8924264235D-02 E2=     -0.2479687324D-01
     alpha-beta  T2 =       0.5295069822D-01 E2=     -0.1725946838D+00
     beta-beta   T2 =       0.8924264235D-02 E2=     -0.2479687324D-01
 ANorm=    0.1034794292D+01
 E2 =    -0.2221884303D+00 EUMP2 =    -0.46025796261273D+03
          IDoAtm=11
          Differentiating once with respect to electric field.
                with respect to dipole field.
          Differentiating once with respect to nuclear coordinates.
 Keep R1 ints in memory in symmetry-blocked form, NReq=17323294.
          There are     1 degrees of freedom in the 1st order CPHF.  IDoFFX=0 NUNeed=     1.
 LinEq1:  Iter=  0 NonCon=     1 RMS=1.72D-03 Max=1.98D-02 NDo=     1
 AX will form     1 AO Fock derivatives at one time.
 LinEq1:  Iter=  1 NonCon=     1 RMS=5.22D-04 Max=6.92D-03 NDo=     1
 LinEq1:  Iter=  2 NonCon=     1 RMS=7.84D-05 Max=9.65D-04 NDo=     1
 LinEq1:  Iter=  3 NonCon=     1 RMS=8.79D-06 Max=9.56D-05 NDo=     1
 LinEq1:  Iter=  4 NonCon=     1 RMS=1.30D-06 Max=1.54D-05 NDo=     1
 LinEq1:  Iter=  5 NonCon=     1 RMS=3.05D-07 Max=2.82D-06 NDo=     1
 LinEq1:  Iter=  6 NonCon=     1 RMS=5.77D-08 Max=4.97D-07 NDo=     1
 LinEq1:  Iter=  7 NonCon=     1 RMS=5.41D-09 Max=3.48D-08 NDo=     1
 LinEq1:  Iter=  8 NonCon=     1 RMS=5.31D-10 Max=5.39D-09 NDo=     1
 LinEq1:  Iter=  9 NonCon=     0 RMS=5.76D-11 Max=6.73D-10 NDo=     1
 Linear equations converged to 1.000D-10 1.000D-09 after     9 iterations.
 End of Minotr F.D. properties file   721 does not exist.
 End of Minotr F.D. properties file   722 does not exist.
 End of Minotr F.D. properties file   788 does not exist.

 **********************************************************************

            Population analysis using the SCF Density.

 **********************************************************************

 Orbital symmetries:
       Occupied  (SG) (SG) (SG) (PI) (PI) (SG) (SG) (PI) (PI)
       Virtual   (SG) (SG) (PI) (PI) (SG) (PI) (PI) (DLTA) (DLTA)
                 (SG) (SG) (PI) (PI) (SG) (SG) (PI) (PI) (PI) (PI)
                 (SG) (DLTA) (DLTA) (DLTA) (DLTA) (PHI) (PHI) (SG)
                 (PI) (PI) (SG) (PI) (PI) (DLTA) (DLTA) (SG) (SG)
                 (PI) (PI) (SG) (DLTA) (DLTA) (PI) (PI) (SG) (PHI)
                 (PHI) (?A) (?A) (DLTA) (DLTA) (PI) (PI) (SG) (PHI)
                 (PHI) (DLTA) (DLTA) (PI) (PI) (SG) (PI) (PI) (SG)
                 (PHI) (PHI) (SG) (PI) (PI) (DLTA) (DLTA) (SG)
                 (DLTA) (DLTA) (PI) (PI) (SG) (SG) (PI) (PI) (SG)
                 (DLTA) (DLTA) (PI) (PI) (SG) (SG) (PI) (PI) (SG)
                 (SG) (SG)
 The electronic state is 1-SG.
 Alpha  occ. eigenvalues -- -104.82746 -10.56496  -8.03426  -8.02893  -8.02893
 Alpha  occ. eigenvalues --   -1.18860  -0.68084  -0.48445  -0.48445
 Alpha virt. eigenvalues --    0.11786   0.22737   0.28397   0.28397   0.32118
 Alpha virt. eigenvalues --    0.44377   0.44377   0.48921   0.48921   0.53945
 Alpha virt. eigenvalues --    0.67312   0.87457   0.87457   0.97431   1.21385
 Alpha virt. eigenvalues --    1.27815   1.27815   1.35863   1.35863   1.40756
 Alpha virt. eigenvalues --    1.40875   1.40875   1.52067   1.52067   1.55076
 Alpha virt. eigenvalues --    1.55076   1.67019   1.78449   1.78449   2.02524
 Alpha virt. eigenvalues --    2.49935   2.49935   2.50604   2.50604   2.63029
 Alpha virt. eigenvalues --    2.94771   3.30522   3.30522   3.49076   3.57882
 Alpha virt. eigenvalues --    3.57882   3.59277   3.59277   3.86296   3.89269
 Alpha virt. eigenvalues --    3.89269   3.93202   3.93202   4.22648   4.22648
 Alpha virt. eigenvalues --    4.25573   4.25573   4.28562   4.28926   4.28926
 Alpha virt. eigenvalues --    4.38917   4.38917   4.42843   4.42843   4.80498
 Alpha virt. eigenvalues --    5.49444   5.49444   6.19518   6.32163   6.32163
 Alpha virt. eigenvalues --    7.16926   7.41576   7.41576   7.55890   7.55890
 Alpha virt. eigenvalues --    7.82171   8.27280   8.27280   8.71480   8.71480
 Alpha virt. eigenvalues --    9.06527   9.76749   9.77709   9.77709  11.24390
 Alpha virt. eigenvalues --   11.26628  11.26628  11.86977  11.86977  13.84147
 Alpha virt. eigenvalues --   30.13138  43.29847  43.29847  43.80896 100.53260
 Alpha virt. eigenvalues --  530.99289
          Condensed to atoms (all electrons):
               1          2
     1  H    0.451821   0.332962
     2  Cl   0.332962  16.882254
 Mulliken charges:
               1
     1  H    0.215217
     2  Cl  -0.215217
 Sum of Mulliken charges =   0.00000
 Mulliken charges with hydrogens summed into heavy atoms:
               1
     2  Cl   0.000000
 Electronic spatial extent (au):  <R**2>=             31.8620
 Charge=             -0.0000 electrons
 Dipole moment (field-independent basis, Debye):
    X=              0.0000    Y=              0.0000    Z=             -0.9241  Tot=              0.9241
 Quadrupole moment (field-independent basis, Debye-Ang):
   XX=            -13.6891   YY=            -13.6891   ZZ=            -10.9409
   XY=              0.0000   XZ=              0.0000   YZ=              0.0000
 Traceless Quadrupole moment (field-independent basis, Debye-Ang):
   XX=             -0.9161   YY=             -0.9161   ZZ=              1.8322
   XY=              0.0000   XZ=              0.0000   YZ=              0.0000
 Octapole moment (field-independent basis, Debye-Ang**2):
  XXX=              0.0000  YYY=              0.0000  ZZZ=             -1.5922  XYY=              0.0000
  XXY=              0.0000  XXZ=             -0.3675  XZZ=              0.0000  YZZ=              0.0000
  YYZ=             -0.3675  XYZ=              0.0000
 Hexadecapole moment (field-independent basis, Debye-Ang**3):
 XXXX=            -15.8042 YYYY=            -15.8042 ZZZZ=            -12.8359 XXXY=              0.0000
 XXXZ=              0.0000 YYYX=              0.0000 YYYZ=              0.0000 ZZZX=              0.0000
 ZZZY=              0.0000 XXYY=             -5.2681 XXZZ=             -5.0530 YYZZ=             -5.0530
 XXYZ=              0.0000 YYXZ=              0.0000 ZZXY=              0.0000
 N-N= 8.996012585640D+00 E-N=-1.114203102554D+03  KE= 4.607852665275D+02
 Symmetry A1   KE= 3.692800358719D+02
 Symmetry A2   KE= 8.537715959443D-51
 Symmetry B1   KE= 4.575261532781D+01
 Symmetry B2   KE= 4.575261532781D+01
   4 Symmetry operations used in ECPInt.
 ECPInt:  NShTT=     528 NPrTT=    1568 LenC2=     529 LenP2D=    1530.
 LDataN:  DoStor=T MaxTD1= 9 Len=  602
 Calling FoFJK, ICntrl=  10002127 FMM=F ISym2X=1 I1Cent= 0 IOpClX= 0 NMat=1 NMatS=1 NMatT=0.
 ***** Axes restored to original set *****
 -------------------------------------------------------------------
 Center     Atomic                   Forces (Hartrees/Bohr)
 Number     Number              X              Y              Z
 -------------------------------------------------------------------
      1        1          -0.000000000   -0.000000000   -0.394086679
      2       17          -0.000000000   -0.000000000    0.394086679
 -------------------------------------------------------------------
 Cartesian Forces:  Max     0.394086679 RMS     0.227526050

 GradGradGradGradGradGradGradGradGradGradGradGradGradGradGradGradGradGrad
 Berny optimization.
 FormGI is forming the generalized inverse of G from B-inverse, IUseBI=4.
 Internal  Forces:  Max     0.394086679 RMS     0.394086679
 Search for a local minimum.
 Step number   1 out of a maximum of   20
 All quantities printed in internal units (Hartrees-Bohrs-Radians)
 Mixed Optimization -- RFO/linear search
 Second derivative matrix not updated -- first step.
 The second derivative matrix:
                          R1
           R1           0.93245
 ITU=  0
     Eigenvalues ---    0.93245
 RFO step:  Lambda=-1.44242505D-01 EMin= 9.32446440D-01
 Linear search not attempted -- first point.
 Maximum step size (   0.300) exceeded in Quadratic search.
    -- Step size scaled by   0.820
 Iteration  1 RMS(Cart)=  0.14142136 RMS(Int)=  0.10000000
 Iteration  2 RMS(Cart)=  0.07071068 RMS(Int)=  0.00000000
 Iteration  3 RMS(Cart)=  0.00000000 RMS(Int)=  0.00000000
 ClnCor:  largest displacement from symmetrization is 5.55D-17 for atom     1.
 Variable       Old X    -DE/DX   Delta X   Delta X   Delta X     New X
                                 (Linear)    (Quad)   (Total)
    R1        1.88973   0.39409   0.00000   0.30000   0.30000   2.18973
         Item               Value     Threshold  Converged?
 Maximum Force            0.394087     0.000450     NO 
 RMS     Force            0.394087     0.000300     NO 
 Maximum Displacement     0.150000     0.001800     NO 
 RMS     Displacement     0.212132     0.001200     NO 
 Predicted change in Energy=-7.626591D-02
 GradGradGradGradGradGradGradGradGradGradGradGradGradGradGradGradGradGrad

                          Input orientation:                          
 ---------------------------------------------------------------------
 Center     Atomic      Atomic             Coordinates (Angstroms)
 Number     Number       Type             X           Y           Z
 ---------------------------------------------------------------------
      1          1           0        0.000000    0.000000   -0.079377
      2         17           0        0.000000    0.000000    1.079377
 ---------------------------------------------------------------------
 Stoichiometry    ClH
 Framework group  C*V[C*(HCl)]
 Deg. of freedom     1
 Full point group                 C*V     NOp   4
 Largest Abelian subgroup         C2V     NOp   4
 Largest concise Abelian subgroup C1      NOp   1
                         Standard orientation:                         
 ---------------------------------------------------------------------
 Center     Atomic      Atomic             Coordinates (Angstroms)
 Number     Number       Type             X           Y           Z
 ---------------------------------------------------------------------
      1          1           0        0.000000    0.000000   -1.094378
      2         17           0        0.000000    0.000000    0.064375
 ---------------------------------------------------------------------
 Rotational constants (GHZ):           0.0000000         384.2287548         384.2287548
 Standard basis: def2QZVPP (5D, 7F)
 There are    55 symmetry adapted cartesian basis functions of A1  symmetry.
 There are    12 symmetry adapted cartesian basis functions of A2  symmetry.
 There are    27 symmetry adapted cartesian basis functions of B1  symmetry.
 There are    27 symmetry adapted cartesian basis functions of B2  symmetry.
 There are    43 symmetry adapted basis functions of A1  symmetry.
 There are    11 symmetry adapted basis functions of A2  symmetry.
 There are    23 symmetry adapted basis functions of B1  symmetry.
 There are    23 symmetry adapted basis functions of B2  symmetry.
   100 basis functions,   159 primitive gaussians,   121 cartesian basis functions
     9 alpha electrons        9 beta electrons
       nuclear repulsion energy         7.7635279633 Hartrees.
 NAtoms=    2 NActive=    2 NUniq=    2 SFac= 1.00D+00 NAtFMM=   60 NAOKFM=F Big=F
 Integral buffers will be    131072 words long.
 Raffenetti 1 integral format.
 Two-electron integral symmetry is turned on.
 One-electron integrals computed using PRISM.
   4 Symmetry operations used in ECPInt.
 ECPInt:  NShTT=     528 NPrTT=    1568 LenC2=     529 LenP2D=    1527.
 LDataN:  DoStor=T MaxTD1= 8 Len=  415
 NBasis=   100 RedAO= T EigKep=  3.66D-04  NBF=    43    11    23    23
 NBsUse=   100 1.00D-06 EigRej= -1.00D+00 NBFU=    43    11    23    23
 Initial guess from the checkpoint file:  "/scratch-data/g16-scratch/Gau-131750.chk"
 B after Tr=     0.000000    0.000000   -0.000000
         Rot=    1.000000    0.000000    0.000000    0.000000 Ang=   0.00 deg.
 Initial guess orbital symmetries:
       Occupied  (SG) (SG) (SG) (PI) (PI) (SG) (SG) (PI) (PI)
       Virtual   (SG) (SG) (PI) (PI) (SG) (PI) (PI) (DLTA) (DLTA)
                 (SG) (SG) (PI) (PI) (SG) (SG) (PI) (PI) (PI) (PI)
                 (SG) (DLTA) (DLTA) (DLTA) (DLTA) (PHI) (PHI) (SG)
                 (PI) (PI) (SG) (PI) (PI) (DLTA) (DLTA) (SG) (SG)
                 (PI) (PI) (SG) (DLTA) (DLTA) (PI) (PI) (SG) (PHI)
                 (PHI) (?A) (?A) (DLTA) (DLTA) (PI) (PI) (SG) (PHI)
                 (PHI) (DLTA) (DLTA) (PI) (PI) (SG) (PI) (PI) (SG)
                 (PHI) (PHI) (SG) (PI) (PI) (DLTA) (DLTA) (SG)
                 (DLTA) (DLTA) (PI) (PI) (SG) (SG) (PI) (PI) (SG)
                 (DLTA) (DLTA) (PI) (PI) (SG) (SG) (PI) (PI) (SG)
                 (SG) (SG)
 ExpMin= 8.03D-02 ExpMax= 1.47D+06 ExpMxC= 1.67D+03 IAcc=3 IRadAn=         5 AccDes= 0.00D+00
 Harris functional with IExCor=  205 and IRadAn=       5 diagonalized for initial guess.
 HarFok:  IExCor=  205 AccDes= 0.00D+00 IRadAn=         5 IDoV= 1 UseB2=F ITyADJ=14
 ICtDFT=  3500011 ScaDFX=  1.000000  1.000000  1.000000  1.000000
 FoFCou: FMM=F IPFlag=           0 FMFlag=      100000 FMFlg1=           0
         NFxFlg=           0 DoJE=T BraDBF=F KetDBF=T FulRan=T
         wScrn=  0.000000 ICntrl=       500 IOpCl=  0 I1Cent=   200000004 NGrid=           0
         NMat0=    1 NMatS0=      1 NMatT0=    0 NMatD0=    1 NMtDS0=    0 NMtDT0=    0
 Petite list used in FoFCou.
 Keep R1 ints in memory in symmetry-blocked form, NReq=17322579.
 Requested convergence on RMS density matrix=1.00D-08 within 128 cycles.
 Requested convergence on MAX density matrix=1.00D-06.
 Requested convergence on             energy=1.00D-06.
 No special actions if energy rises.
 SCF Done:  E(RHF) =  -460.103504124     A.U. after   10 cycles
            NFock= 10  Conv=0.93D-08     -V/T= 1.9995
 ExpMin= 8.03D-02 ExpMax= 1.47D+06 ExpMxC= 1.67D+03 IAcc=3 IRadAn=         5 AccDes= 0.00D+00
 HarFok:  IExCor=  205 AccDes= 0.00D+00 IRadAn=         5 IDoV=-2 UseB2=F ITyADJ=14
 ICtDFT= 12500011 ScaDFX=  1.000000  1.000000  1.000000  1.000000
 Range of M.O.s used for correlation:     6   100
 NBasis=   100 NAE=     9 NBE=     9 NFC=     5 NFV=     0
 NROrb=     95 NOA=     4 NOB=     4 NVA=    91 NVB=    91

 **** Warning!!: The largest alpha MO coefficient is  0.15087697D+02

 Fully direct method using O(ONN) memory.
 JobTyp=1 Pass  1:  I=   6 to   9 NPSUse=  1 ParTrn=F ParDer=F DoDerP=T.
 Spin components of T(2) and E(2):
     alpha-alpha T2 =       0.9202512595D-02 E2=     -0.2483260729D-01
     alpha-beta  T2 =       0.5498020486D-01 E2=     -0.1731097736D+00
     beta-beta   T2 =       0.9202512595D-02 E2=     -0.2483260729D-01
 ANorm=    0.1036043064D+01
 E2 =    -0.2227749882D+00 EUMP2 =    -0.46032627911206D+03
          IDoAtm=11
          Differentiating once with respect to electric field.
                with respect to dipole field.
          Differentiating once with respect to nuclear coordinates.
 Keep R1 ints in memory in symmetry-blocked form, NReq=17323280.
          There are     1 degrees of freedom in the 1st order CPHF.  IDoFFX=0 NUNeed=     1.
 LinEq1:  Iter=  0 NonCon=     1 RMS=1.79D-03 Max=2.06D-02 NDo=     1
 AX will form     1 AO Fock derivatives at one time.
 LinEq1:  Iter=  1 NonCon=     1 RMS=5.49D-04 Max=7.12D-03 NDo=     1
 LinEq1:  Iter=  2 NonCon=     1 RMS=1.05D-04 Max=1.37D-03 NDo=     1
 LinEq1:  Iter=  3 NonCon=     1 RMS=1.35D-05 Max=1.44D-04 NDo=     1
 LinEq1:  Iter=  4 NonCon=     1 RMS=2.82D-06 Max=3.09D-05 NDo=     1
 LinEq1:  Iter=  5 NonCon=     1 RMS=5.17D-07 Max=5.36D-06 NDo=     1
 LinEq1:  Iter=  6 NonCon=     1 RMS=7.66D-08 Max=6.49D-07 NDo=     1
 LinEq1:  Iter=  7 NonCon=     1 RMS=8.30D-09 Max=4.90D-08 NDo=     1
 LinEq1:  Iter=  8 NonCon=     1 RMS=8.21D-10 Max=1.07D-08 NDo=     1
 LinEq1:  Iter=  9 NonCon=     0 RMS=7.09D-11 Max=7.11D-10 NDo=     1
 Linear equations converged to 1.000D-10 1.000D-09 after     9 iterations.
 End of Minotr F.D. properties file   721 does not exist.
 End of Minotr F.D. properties file   722 does not exist.
 End of Minotr F.D. properties file   788 does not exist.
   4 Symmetry operations used in ECPInt.
 ECPInt:  NShTT=     528 NPrTT=    1568 LenC2=     529 LenP2D=    1527.
 LDataN:  DoStor=T MaxTD1= 9 Len=  602
 Calling FoFJK, ICntrl=  10002127 FMM=F ISym2X=1 I1Cent= 0 IOpClX= 0 NMat=1 NMatS=1 NMatT=0.
 ***** Axes restored to original set *****
 -------------------------------------------------------------------
 Center     Atomic                   Forces (Hartrees/Bohr)
 Number     Number              X              Y              Z
 -------------------------------------------------------------------
      1        1          -0.000000000   -0.000000000   -0.101016603
      2       17          -0.000000000   -0.000000000    0.101016603
 -------------------------------------------------------------------
 Cartesian Forces:  Max     0.101016603 RMS     0.058321963

 GradGradGradGradGradGradGradGradGradGradGradGradGradGradGradGradGradGrad
 Berny optimization.
 Using GEDIIS/GDIIS optimizer.
 Internal  Forces:  Max     0.101016603 RMS     0.101016603
 Search for a local minimum.
 Step number   2 out of a maximum of   20
 All quantities printed in internal units (Hartrees-Bohrs-Radians)
 Mixed Optimization -- RFO/linear search
 Update second derivatives using D2CorX and points    1    2
 DE= -6.83D-02 DEPred=-7.63D-02 R= 8.96D-01
 TightC=F SS=  1.41D+00  RLast= 3.00D-01 DXNew= 5.0454D-01 9.0000D-01
 Trust test= 8.96D-01 RLast= 3.00D-01 DXMaxT set to 5.05D-01
 The second derivative matrix:
                          R1
           R1           0.97690
 ITU=  1  0
 Use linear search instead of GDIIS.
     Eigenvalues ---    0.97690
 RFO step:  Lambda= 0.00000000D+00 EMin= 9.76900253D-01
 Quartic linear search produced a step of  0.93221.
 Iteration  1 RMS(Cart)=  0.14142136 RMS(Int)=  0.07966403
 Iteration  2 RMS(Cart)=  0.05633098 RMS(Int)=  0.00000000
 Iteration  3 RMS(Cart)=  0.00000000 RMS(Int)=  0.00000000
 ClnCor:  largest displacement from symmetrization is 1.67D-16 for atom     1.
 Variable       Old X    -DE/DX   Delta X   Delta X   Delta X     New X
                                 (Linear)    (Quad)   (Total)
    R1        2.18973   0.10102   0.27966   0.00000   0.27966   2.46939
         Item               Value     Threshold  Converged?
 Maximum Force            0.101017     0.000450     NO 
 RMS     Force            0.101017     0.000300     NO 
 Maximum Displacement     0.139832     0.001800     NO 
 RMS     Displacement     0.197752     0.001200     NO 
 Predicted change in Energy=-9.951936D-03
 GradGradGradGradGradGradGradGradGradGradGradGradGradGradGradGradGradGrad

                          Input orientation:                          
 ---------------------------------------------------------------------
 Center     Atomic      Atomic             Coordinates (Angstroms)
 Number     Number       Type             X           Y           Z
 ---------------------------------------------------------------------
      1          1           0        0.000000    0.000000   -0.153372
      2         17           0        0.000000    0.000000    1.153372
 ---------------------------------------------------------------------
 Stoichiometry    ClH
 Framework group  C*V[C*(HCl)]
 Deg. of freedom     1
 Full point group                 C*V     NOp   4
 Largest Abelian subgroup         C2V     NOp   4
 Largest concise Abelian subgroup C1      NOp   1
                         Standard orientation:                         
 ---------------------------------------------------------------------
 Center     Atomic      Atomic             Coordinates (Angstroms)
 Number     Number       Type             X           Y           Z
 ---------------------------------------------------------------------
      1          1           0        0.000000    0.000000   -1.234148
      2         17           0        0.000000    0.000000    0.072597
 ---------------------------------------------------------------------
 Rotational constants (GHZ):           0.0000000         302.1273480         302.1273480
 Standard basis: def2QZVPP (5D, 7F)
 There are    55 symmetry adapted cartesian basis functions of A1  symmetry.
 There are    12 symmetry adapted cartesian basis functions of A2  symmetry.
 There are    27 symmetry adapted cartesian basis functions of B1  symmetry.
 There are    27 symmetry adapted cartesian basis functions of B2  symmetry.
 There are    43 symmetry adapted basis functions of A1  symmetry.
 There are    11 symmetry adapted basis functions of A2  symmetry.
 There are    23 symmetry adapted basis functions of B1  symmetry.
 There are    23 symmetry adapted basis functions of B2  symmetry.
   100 basis functions,   159 primitive gaussians,   121 cartesian basis functions
     9 alpha electrons        9 beta electrons
       nuclear repulsion energy         6.8842908339 Hartrees.
 NAtoms=    2 NActive=    2 NUniq=    2 SFac= 1.00D+00 NAtFMM=   60 NAOKFM=F Big=F
 Integral buffers will be    131072 words long.
 Raffenetti 1 integral format.
 Two-electron integral symmetry is turned on.
 One-electron integrals computed using PRISM.
   4 Symmetry operations used in ECPInt.
 ECPInt:  NShTT=     528 NPrTT=    1568 LenC2=     529 LenP2D=    1527.
 LDataN:  DoStor=T MaxTD1= 8 Len=  415
 NBasis=   100 RedAO= T EigKep=  6.27D-04  NBF=    43    11    23    23
 NBsUse=   100 1.00D-06 EigRej= -1.00D+00 NBFU=    43    11    23    23
 Initial guess from the checkpoint file:  "/scratch-data/g16-scratch/Gau-131750.chk"
 B after Tr=     0.000000    0.000000   -0.000000
         Rot=    1.000000    0.000000    0.000000    0.000000 Ang=   0.00 deg.
 Initial guess orbital symmetries:
       Occupied  (SG) (SG) (SG) (PI) (PI) (SG) (SG) (PI) (PI)
       Virtual   (SG) (SG) (PI) (PI) (SG) (PI) (PI) (DLTA) (DLTA)
                 (SG) (SG) (PI) (PI) (SG) (SG) (PI) (PI) (SG) (PI)
                 (PI) (DLTA) (DLTA) (DLTA) (DLTA) (PHI) (PHI) (SG)
                 (PI) (PI) (SG) (DLTA) (DLTA) (PI) (PI) (SG) (SG)
                 (PI) (PI) (SG) (DLTA) (DLTA) (PI) (PI) (SG) (PHI)
                 (PHI) (?A) (?A) (DLTA) (DLTA) (SG) (PI) (PI) (PHI)
                 (PHI) (DLTA) (DLTA) (PI) (PI) (SG) (PI) (PI) (SG)
                 (PHI) (PHI) (DLTA) (DLTA) (PI) (PI) (SG) (SG)
                 (DLTA) (DLTA) (PI) (PI) (SG) (PI) (PI) (SG) (SG)
                 (DLTA) (DLTA) (PI) (PI) (SG) (SG) (PI) (PI) (SG)
                 (SG) (SG)
 ExpMin= 8.03D-02 ExpMax= 1.47D+06 ExpMxC= 1.67D+03 IAcc=3 IRadAn=         5 AccDes= 0.00D+00
 Harris functional with IExCor=  205 and IRadAn=       5 diagonalized for initial guess.
 HarFok:  IExCor=  205 AccDes= 0.00D+00 IRadAn=         5 IDoV= 1 UseB2=F ITyADJ=14
 ICtDFT=  3500011 ScaDFX=  1.000000  1.000000  1.000000  1.000000
 FoFCou: FMM=F IPFlag=           0 FMFlag=      100000 FMFlg1=           0
         NFxFlg=           0 DoJE=T BraDBF=F KetDBF=T FulRan=T
         wScrn=  0.000000 ICntrl=       500 IOpCl=  0 I1Cent=   200000004 NGrid=           0
         NMat0=    1 NMatS0=      1 NMatT0=    0 NMatD0=    1 NMtDS0=    0 NMtDT0=    0
 Petite list used in FoFCou.
 Keep R1 ints in memory in symmetry-blocked form, NReq=17322467.
 Requested convergence on RMS density matrix=1.00D-08 within 128 cycles.
 Requested convergence on MAX density matrix=1.00D-06.
 Requested convergence on             energy=1.00D-06.
 No special actions if energy rises.
 SCF Done:  E(RHF) =  -460.111263756     A.U. after   10 cycles
            NFock= 10  Conv=0.35D-08     -V/T= 2.0001
 ExpMin= 8.03D-02 ExpMax= 1.47D+06 ExpMxC= 1.67D+03 IAcc=3 IRadAn=         5 AccDes= 0.00D+00
 HarFok:  IExCor=  205 AccDes= 0.00D+00 IRadAn=         5 IDoV=-2 UseB2=F ITyADJ=14
 ICtDFT= 12500011 ScaDFX=  1.000000  1.000000  1.000000  1.000000
 Range of M.O.s used for correlation:     6   100
 NBasis=   100 NAE=     9 NBE=     9 NFC=     5 NFV=     0
 NROrb=     95 NOA=     4 NOB=     4 NVA=    91 NVB=    91

 **** Warning!!: The largest alpha MO coefficient is  0.10392911D+02

 Fully direct method using O(ONN) memory.
 JobTyp=1 Pass  1:  I=   6 to   9 NPSUse=  1 ParTrn=F ParDer=F DoDerP=T.
 Spin components of T(2) and E(2):
     alpha-alpha T2 =       0.9466446136D-02 E2=     -0.2488673557D-01
     alpha-beta  T2 =       0.5740681362D-01 E2=     -0.1742101492D+00
     beta-beta   T2 =       0.9466446136D-02 E2=     -0.2488673557D-01
 ANorm=    0.1037467930D+01
 E2 =    -0.2239836203D+00 EUMP2 =    -0.46033524737644D+03
          IDoAtm=11
          Differentiating once with respect to electric field.
                with respect to dipole field.
          Differentiating once with respect to nuclear coordinates.
 Keep R1 ints in memory in symmetry-blocked form, NReq=17323224.
          There are     1 degrees of freedom in the 1st order CPHF.  IDoFFX=0 NUNeed=     1.
 LinEq1:  Iter=  0 NonCon=     1 RMS=1.93D-03 Max=2.12D-02 NDo=     1
 AX will form     1 AO Fock derivatives at one time.
 LinEq1:  Iter=  1 NonCon=     1 RMS=5.80D-04 Max=7.13D-03 NDo=     1
 LinEq1:  Iter=  2 NonCon=     1 RMS=1.37D-04 Max=1.98D-03 NDo=     1
 LinEq1:  Iter=  3 NonCon=     1 RMS=1.98D-05 Max=2.45D-04 NDo=     1
 LinEq1:  Iter=  4 NonCon=     1 RMS=4.66D-06 Max=4.71D-05 NDo=     1
 LinEq1:  Iter=  5 NonCon=     1 RMS=6.25D-07 Max=6.23D-06 NDo=     1
 LinEq1:  Iter=  6 NonCon=     1 RMS=9.35D-08 Max=6.47D-07 NDo=     1
 LinEq1:  Iter=  7 NonCon=     1 RMS=1.17D-08 Max=7.64D-08 NDo=     1
 LinEq1:  Iter=  8 NonCon=     1 RMS=1.29D-09 Max=1.58D-08 NDo=     1
 LinEq1:  Iter=  9 NonCon=     1 RMS=1.02D-10 Max=9.88D-10 NDo=     1
 LinEq1:  Iter= 10 NonCon=     0 RMS=9.58D-12 Max=1.03D-10 NDo=     1
 Linear equations converged to 1.000D-10 1.000D-09 after    10 iterations.
 End of Minotr F.D. properties file   721 does not exist.
 End of Minotr F.D. properties file   722 does not exist.
 End of Minotr F.D. properties file   788 does not exist.
   4 Symmetry operations used in ECPInt.
 ECPInt:  NShTT=     528 NPrTT=    1568 LenC2=     529 LenP2D=    1527.
 LDataN:  DoStor=T MaxTD1= 9 Len=  602
 Calling FoFJK, ICntrl=  10002127 FMM=F ISym2X=1 I1Cent= 0 IOpClX= 0 NMat=1 NMatS=1 NMatT=0.
 ***** Axes restored to original set *****
 -------------------------------------------------------------------
 Center     Atomic                   Forces (Hartrees/Bohr)
 Number     Number              X              Y              Z
 -------------------------------------------------------------------
      1        1          -0.000000000   -0.000000000    0.020929241
      2       17          -0.000000000   -0.000000000   -0.020929241
 -------------------------------------------------------------------
 Cartesian Forces:  Max     0.020929241 RMS     0.012083503

 GradGradGradGradGradGradGradGradGradGradGradGradGradGradGradGradGradGrad
 Berny optimization.
 Using GEDIIS/GDIIS optimizer.
 Internal  Forces:  Max     0.020929241 RMS     0.020929241
 Search for a local minimum.
 Step number   3 out of a maximum of   20
 All quantities printed in internal units (Hartrees-Bohrs-Radians)
 Mixed Optimization -- RFO/linear search
 Update second derivatives using D2CorX and points    2    3
 DE= -8.97D-03 DEPred=-9.95D-03 R= 9.01D-01
 TightC=F SS=  1.41D+00  RLast= 2.80D-01 DXNew= 8.4853D-01 8.3899D-01
 Trust test= 9.01D-01 RLast= 2.80D-01 DXMaxT set to 8.39D-01
 The second derivative matrix:
                          R1
           R1           0.43604
 ITU=  1  1
 Use linear search instead of GDIIS.
     Eigenvalues ---    0.43604
 RFO step:  Lambda= 0.00000000D+00 EMin= 4.36044079D-01
 Quartic linear search produced a step of -0.24093.
 Iteration  1 RMS(Cart)=  0.04764454 RMS(Int)=  0.00000000
 Iteration  2 RMS(Cart)=  0.00000000 RMS(Int)=  0.00000000
 ClnCor:  largest displacement from symmetrization is 0.00D+00 for atom     0.
 Variable       Old X    -DE/DX   Delta X   Delta X   Delta X     New X
                                 (Linear)    (Quad)   (Total)
    R1        2.46939  -0.02093  -0.06738   0.00000  -0.06738   2.40201
         Item               Value     Threshold  Converged?
 Maximum Force            0.020929     0.000450     NO 
 RMS     Force            0.020929     0.000300     NO 
 Maximum Displacement     0.033690     0.001800     NO 
 RMS     Displacement     0.047645     0.001200     NO 
 Predicted change in Energy=-4.203819D-04
 GradGradGradGradGradGradGradGradGradGradGradGradGradGradGradGradGradGrad

                          Input orientation:                          
 ---------------------------------------------------------------------
 Center     Atomic      Atomic             Coordinates (Angstroms)
 Number     Number       Type             X           Y           Z
 ---------------------------------------------------------------------
      1          1           0        0.000000    0.000000   -0.135545
      2         17           0        0.000000    0.000000    1.135545
 ---------------------------------------------------------------------
 Stoichiometry    ClH
 Framework group  C*V[C*(HCl)]
 Deg. of freedom     1
 Full point group                 C*V     NOp   4
 Largest Abelian subgroup         C2V     NOp   4
 Largest concise Abelian subgroup C1      NOp   1
                         Standard orientation:                         
 ---------------------------------------------------------------------
 Center     Atomic      Atomic             Coordinates (Angstroms)
 Number     Number       Type             X           Y           Z
 ---------------------------------------------------------------------
      1          1           0        0.000000    0.000000   -1.200473
      2         17           0        0.000000    0.000000    0.070616
 ---------------------------------------------------------------------
 Rotational constants (GHZ):           0.0000000         319.3152242         319.3152242
 Standard basis: def2QZVPP (5D, 7F)
 There are    55 symmetry adapted cartesian basis functions of A1  symmetry.
 There are    12 symmetry adapted cartesian basis functions of A2  symmetry.
 There are    27 symmetry adapted cartesian basis functions of B1  symmetry.
 There are    27 symmetry adapted cartesian basis functions of B2  symmetry.
 There are    43 symmetry adapted basis functions of A1  symmetry.
 There are    11 symmetry adapted basis functions of A2  symmetry.
 There are    23 symmetry adapted basis functions of B1  symmetry.
 There are    23 symmetry adapted basis functions of B2  symmetry.
   100 basis functions,   159 primitive gaussians,   121 cartesian basis functions
     9 alpha electrons        9 beta electrons
       nuclear repulsion energy         7.0774042501 Hartrees.
 NAtoms=    2 NActive=    2 NUniq=    2 SFac= 1.00D+00 NAtFMM=   60 NAOKFM=F Big=F
 Integral buffers will be    131072 words long.
 Raffenetti 1 integral format.
 Two-electron integral symmetry is turned on.
 One-electron integrals computed using PRISM.
   4 Symmetry operations used in ECPInt.
 ECPInt:  NShTT=     528 NPrTT=    1568 LenC2=     529 LenP2D=    1527.
 LDataN:  DoStor=T MaxTD1= 8 Len=  415
 NBasis=   100 RedAO= T EigKep=  5.54D-04  NBF=    43    11    23    23
 NBsUse=   100 1.00D-06 EigRej= -1.00D+00 NBFU=    43    11    23    23
 Initial guess from the checkpoint file:  "/scratch-data/g16-scratch/Gau-131750.chk"
 B after Tr=     0.000000    0.000000    0.000000
         Rot=    1.000000    0.000000    0.000000    0.000000 Ang=   0.00 deg.
 Initial guess orbital symmetries:
       Occupied  (SG) (SG) (SG) (PI) (PI) (SG) (SG) (PI) (PI)
       Virtual   (SG) (SG) (PI) (PI) (SG) (PI) (PI) (DLTA) (DLTA)
                 (SG) (SG) (PI) (PI) (SG) (SG) (PI) (PI) (SG) (PI)
                 (PI) (DLTA) (DLTA) (DLTA) (DLTA) (SG) (PHI) (PHI)
                 (PI) (PI) (SG) (DLTA) (DLTA) (PI) (PI) (SG) (SG)
                 (PI) (PI) (SG) (DLTA) (DLTA) (PI) (PI) (SG) (PHI)
                 (PHI) (?A) (?A) (DLTA) (DLTA) (SG) (PI) (PI) (PHI)
                 (PHI) (DLTA) (DLTA) (PI) (PI) (SG) (PI) (PI) (SG)
                 (PHI) (PHI) (DLTA) (DLTA) (SG) (PI) (PI) (SG)
                 (DLTA) (DLTA) (PI) (PI) (PI) (PI) (SG) (SG) (SG)
                 (DLTA) (DLTA) (PI) (PI) (SG) (SG) (PI) (PI) (SG)
                 (SG) (SG)
 ExpMin= 8.03D-02 ExpMax= 1.47D+06 ExpMxC= 1.67D+03 IAcc=3 IRadAn=         5 AccDes= 0.00D+00
 Harris functional with IExCor=  205 and IRadAn=       5 diagonalized for initial guess.
 HarFok:  IExCor=  205 AccDes= 0.00D+00 IRadAn=         5 IDoV= 1 UseB2=F ITyADJ=14
 ICtDFT=  3500011 ScaDFX=  1.000000  1.000000  1.000000  1.000000
 FoFCou: FMM=F IPFlag=           0 FMFlag=      100000 FMFlg1=           0
         NFxFlg=           0 DoJE=T BraDBF=F KetDBF=T FulRan=T
         wScrn=  0.000000 ICntrl=       500 IOpCl=  0 I1Cent=   200000004 NGrid=           0
         NMat0=    1 NMatS0=      1 NMatT0=    0 NMatD0=    1 NMtDS0=    0 NMtDT0=    0
 Petite list used in FoFCou.
 Keep R1 ints in memory in symmetry-blocked form, NReq=17322509.
 Requested convergence on RMS density matrix=1.00D-08 within 128 cycles.
 Requested convergence on MAX density matrix=1.00D-06.
 Requested convergence on             energy=1.00D-06.
 No special actions if energy rises.
 SCF Done:  E(RHF) =  -460.112328549     A.U. after    8 cycles
            NFock=  8  Conv=0.40D-08     -V/T= 2.0000
 ExpMin= 8.03D-02 ExpMax= 1.47D+06 ExpMxC= 1.67D+03 IAcc=3 IRadAn=         5 AccDes= 0.00D+00
 HarFok:  IExCor=  205 AccDes= 0.00D+00 IRadAn=         5 IDoV=-2 UseB2=F ITyADJ=14
 ICtDFT= 12500011 ScaDFX=  1.000000  1.000000  1.000000  1.000000
 Range of M.O.s used for correlation:     6   100
 NBasis=   100 NAE=     9 NBE=     9 NFC=     5 NFV=     0
 NROrb=     95 NOA=     4 NOB=     4 NVA=    91 NVB=    91

 **** Warning!!: The largest alpha MO coefficient is  0.11614938D+02

 Fully direct method using O(ONN) memory.
 JobTyp=1 Pass  1:  I=   6 to   9 NPSUse=  1 ParTrn=F ParDer=F DoDerP=T.
 Spin components of T(2) and E(2):
     alpha-alpha T2 =       0.9403296098D-02 E2=     -0.2487289821D-01
     alpha-beta  T2 =       0.5677111543D-01 E2=     -0.1738935001D+00
     beta-beta   T2 =       0.9403296098D-02 E2=     -0.2487289821D-01
 ANorm=    0.1037100626D+01
 E2 =    -0.2236392965D+00 EUMP2 =    -0.46033596784503D+03
          IDoAtm=11
          Differentiating once with respect to electric field.
                with respect to dipole field.
          Differentiating once with respect to nuclear coordinates.
 Keep R1 ints in memory in symmetry-blocked form, NReq=17323238.
          There are     1 degrees of freedom in the 1st order CPHF.  IDoFFX=0 NUNeed=     1.
 LinEq1:  Iter=  0 NonCon=     1 RMS=1.89D-03 Max=2.11D-02 NDo=     1
 AX will form     1 AO Fock derivatives at one time.
 LinEq1:  Iter=  1 NonCon=     1 RMS=5.72D-04 Max=7.02D-03 NDo=     1
 LinEq1:  Iter=  2 NonCon=     1 RMS=1.29D-04 Max=1.75D-03 NDo=     1
 LinEq1:  Iter=  3 NonCon=     1 RMS=1.81D-05 Max=2.18D-04 NDo=     1
 LinEq1:  Iter=  4 NonCon=     1 RMS=4.18D-06 Max=4.33D-05 NDo=     1
 LinEq1:  Iter=  5 NonCon=     1 RMS=5.99D-07 Max=6.10D-06 NDo=     1
 LinEq1:  Iter=  6 NonCon=     1 RMS=8.93D-08 Max=6.53D-07 NDo=     1
 LinEq1:  Iter=  7 NonCon=     1 RMS=1.09D-08 Max=6.75D-08 NDo=     1
 LinEq1:  Iter=  8 NonCon=     1 RMS=1.16D-09 Max=1.47D-08 NDo=     1
 LinEq1:  Iter=  9 NonCon=     0 RMS=8.99D-11 Max=8.91D-10 NDo=     1
 Linear equations converged to 1.000D-10 1.000D-09 after     9 iterations.
 End of Minotr F.D. properties file   721 does not exist.
 End of Minotr F.D. properties file   722 does not exist.
 End of Minotr F.D. properties file   788 does not exist.
   4 Symmetry operations used in ECPInt.
 ECPInt:  NShTT=     528 NPrTT=    1568 LenC2=     529 LenP2D=    1527.
 LDataN:  DoStor=T MaxTD1= 9 Len=  602
 Calling FoFJK, ICntrl=  10002127 FMM=F ISym2X=1 I1Cent= 0 IOpClX= 0 NMat=1 NMatS=1 NMatT=0.
 ***** Axes restored to original set *****
 -------------------------------------------------------------------
 Center     Atomic                   Forces (Hartrees/Bohr)
 Number     Number              X              Y              Z
 -------------------------------------------------------------------
      1        1          -0.000000000   -0.000000000   -0.000238954
      2       17          -0.000000000   -0.000000000    0.000238954
 -------------------------------------------------------------------
 Cartesian Forces:  Max     0.000238954 RMS     0.000137960

 GradGradGradGradGradGradGradGradGradGradGradGradGradGradGradGradGradGrad
 Berny optimization.
 Using GEDIIS/GDIIS optimizer.
 Internal  Forces:  Max     0.000238954 RMS     0.000238954
 Search for a local minimum.
 Step number   4 out of a maximum of   20
 All quantities printed in internal units (Hartrees-Bohrs-Radians)
 Mixed Optimization -- En-DIIS/RFO-DIIS
 Update second derivatives using D2CorX and points    3    4
 DE= -7.20D-04 DEPred=-4.20D-04 R= 1.71D+00
 TightC=F SS=  1.41D+00  RLast= 6.74D-02 DXNew= 1.4110D+00 2.0214D-01
 Trust test= 1.71D+00 RLast= 6.74D-02 DXMaxT set to 8.39D-01
 The second derivative matrix:
                          R1
           R1           0.31416
 ITU=  1  1
 Use linear search instead of GDIIS.
     Eigenvalues ---    0.31416
 RFO step:  Lambda= 0.00000000D+00 EMin= 3.14163458D-01
 Quartic linear search produced a step of -0.01027.
 Iteration  1 RMS(Cart)=  0.00048935 RMS(Int)=  0.00000000
 Iteration  2 RMS(Cart)=  0.00000000 RMS(Int)=  0.00000000
 ClnCor:  largest displacement from symmetrization is 0.00D+00 for atom     0.
 Variable       Old X    -DE/DX   Delta X   Delta X   Delta X     New X
                                 (Linear)    (Quad)   (Total)
    R1        2.40201   0.00024   0.00069   0.00000   0.00069   2.40270
         Item               Value     Threshold  Converged?
 Maximum Force            0.000239     0.000450     YES
 RMS     Force            0.000239     0.000300     YES
 Maximum Displacement     0.000346     0.001800     YES
 RMS     Displacement     0.000489     0.001200     YES
 Predicted change in Energy=-9.013637D-08
 Optimization completed.
    -- Stationary point found.
                           ----------------------------
                           !   Optimized Parameters   !
                           ! (Angstroms and Degrees)  !
 --------------------------                            --------------------------
 ! Name  Definition              Value          Derivative Info.                !
 --------------------------------------------------------------------------------
 ! R1    R(1,2)                  1.2711         -DE/DX =    0.0002              !
 --------------------------------------------------------------------------------
 GradGradGradGradGradGradGradGradGradGradGradGradGradGradGradGradGradGrad

                          Input orientation:                          
 ---------------------------------------------------------------------
 Center     Atomic      Atomic             Coordinates (Angstroms)
 Number     Number       Type             X           Y           Z
 ---------------------------------------------------------------------
      1          1           0        0.000000    0.000000   -0.135545
      2         17           0        0.000000    0.000000    1.135545
 ---------------------------------------------------------------------
 Stoichiometry    ClH
 Framework group  C*V[C*(HCl)]
 Deg. of freedom     1
 Full point group                 C*V     NOp   4
 Largest Abelian subgroup         C2V     NOp   4
 Largest concise Abelian subgroup C1      NOp   1
                         Standard orientation:                         
 ---------------------------------------------------------------------
 Center     Atomic      Atomic             Coordinates (Angstroms)
 Number     Number       Type             X           Y           Z
 ---------------------------------------------------------------------
      1          1           0        0.000000    0.000000   -1.200473
      2         17           0        0.000000    0.000000    0.070616
 ---------------------------------------------------------------------
 Rotational constants (GHZ):           0.0000000         319.3152242         319.3152242

 **********************************************************************

            Population analysis using the SCF Density.

 **********************************************************************

 Orbital symmetries:
       Occupied  (SG) (SG) (SG) (PI) (PI) (SG) (SG) (PI) (PI)
       Virtual   (SG) (SG) (PI) (PI) (SG) (PI) (PI) (DLTA) (DLTA)
                 (SG) (SG) (PI) (PI) (SG) (SG) (PI) (PI) (SG) (PI)
                 (PI) (DLTA) (DLTA) (DLTA) (DLTA) (SG) (PHI) (PHI)
                 (PI) (PI) (SG) (DLTA) (DLTA) (PI) (PI) (SG) (SG)
                 (PI) (PI) (SG) (DLTA) (DLTA) (PI) (PI) (SG) (PHI)
                 (PHI) (?A) (?A) (DLTA) (DLTA) (SG) (PI) (PI) (PHI)
                 (PHI) (DLTA) (DLTA) (PI) (PI) (SG) (PI) (PI) (SG)
                 (PHI) (PHI) (DLTA) (DLTA) (SG) (PI) (PI) (SG)
                 (DLTA) (DLTA) (PI) (PI) (PI) (PI) (SG) (SG) (SG)
                 (DLTA) (DLTA) (PI) (PI) (SG) (SG) (PI) (PI) (SG)
                 (SG) (SG)
 The electronic state is 1-SG.
 Alpha  occ. eigenvalues -- -104.84841 -10.57380  -8.04112  -8.03924  -8.03924
 Alpha  occ. eigenvalues --   -1.11733  -0.62654  -0.47688  -0.47688
 Alpha virt. eigenvalues --    0.09739   0.23035   0.28627   0.28627   0.30251
 Alpha virt. eigenvalues --    0.43588   0.43588   0.49397   0.49397   0.50292
 Alpha virt. eigenvalues --    0.67410   0.82915   0.82915   1.02653   1.19434
 Alpha virt. eigenvalues --    1.28686   1.28686   1.28958   1.38110   1.38110
 Alpha virt. eigenvalues --    1.41575   1.41575   1.50801   1.50801   1.53470
 Alpha virt. eigenvalues --    1.55683   1.55683   1.76549   1.76549   1.99534
 Alpha virt. eigenvalues --    2.33804   2.33804   2.46212   2.46212   2.65244
 Alpha virt. eigenvalues --    2.85735   2.98095   2.98095   3.16580   3.57701
 Alpha virt. eigenvalues --    3.57701   3.64860   3.64860   3.76711   3.90052
 Alpha virt. eigenvalues --    3.90052   3.93849   3.93849   4.06995   4.06995
 Alpha virt. eigenvalues --    4.16484   4.25897   4.25897   4.29549   4.29549
 Alpha virt. eigenvalues --    4.33731   4.33731   4.35337   4.35337   4.72532
 Alpha virt. eigenvalues --    4.95656   4.95656   5.12345   6.10093   6.10093
 Alpha virt. eigenvalues --    6.77886   6.77886   7.06855   7.31998   7.31998
 Alpha virt. eigenvalues --    7.45480   8.22645   8.22645   8.59518   8.59518
 Alpha virt. eigenvalues --    8.79296   8.79296   8.89172   9.20188  10.56284
 Alpha virt. eigenvalues --   11.25874  11.25874  11.34925  11.34925  12.29791
 Alpha virt. eigenvalues --   29.76763  43.27785  43.27785  43.44298 100.18055
 Alpha virt. eigenvalues --  530.39412
          Condensed to atoms (all electrons):
               1          2
     1  H    0.494612   0.336193
     2  Cl   0.336193  16.833002
 Mulliken charges:
               1
     1  H    0.169195
     2  Cl  -0.169195
 Sum of Mulliken charges =  -0.00000
 Mulliken charges with hydrogens summed into heavy atoms:
               1
     2  Cl  -0.000000
 Electronic spatial extent (au):  <R**2>=             34.0579
 Charge=             -0.0000 electrons
 Dipole moment (field-independent basis, Debye):
    X=              0.0000    Y=              0.0000    Z=             -1.2062  Tot=              1.2062
 Quadrupole moment (field-independent basis, Debye-Ang):
   XX=            -14.0530   YY=            -14.0530   ZZ=            -10.3737
   XY=              0.0000   XZ=              0.0000   YZ=              0.0000
 Traceless Quadrupole moment (field-independent basis, Debye-Ang):
   XX=             -1.2264   YY=             -1.2264   ZZ=              2.4529
   XY=              0.0000   XZ=              0.0000   YZ=              0.0000
 Octapole moment (field-independent basis, Debye-Ang**2):
  XXX=              0.0000  YYY=              0.0000  ZZZ=             -2.6727  XYY=              0.0000
  XXY=              0.0000  XXZ=             -0.1589  XZZ=              0.0000  YZZ=              0.0000
  YYZ=             -0.1589  XYZ=              0.0000
 Hexadecapole moment (field-independent basis, Debye-Ang**3):
 XXXX=            -16.4057 YYYY=            -16.4057 ZZZZ=            -13.5613 XXXY=              0.0000
 XXXZ=              0.0000 YYYX=              0.0000 YYYZ=              0.0000 ZZZX=              0.0000
 ZZZY=              0.0000 XXYY=             -5.4686 XXZZ=             -5.7852 YYZZ=             -5.7852
 XXYZ=              0.0000 YYXZ=              0.0000 ZZXY=              0.0000
 N-N= 7.077404250146D+00 E-N=-1.110003060209D+03  KE= 4.601024407948D+02
 Symmetry A1   KE= 3.685845555778D+02
 Symmetry A2   KE= 1.983018987766D-51
 Symmetry B1   KE= 4.575894260847D+01
 Symmetry B2   KE= 4.575894260847D+01
 1\1\GINC-SUGARCUBE\FOpt\RMP2-FC\def2QZVPP\Cl1H1\JUPYTER-BRANDONC\17-Ap
 r-2023\0\\# MP2 def2qzvpp # opt freq=(anharm,vibrot) scf=tight\\H35Cl\
 \0,1\H,0.,0.,-0.1355446339\Cl,0.,0.,1.1355446339\\Version=ES64L-G16Rev
 B.01\State=1-SG\HF=-460.1123285\MP2=-460.3359678\RMSD=3.991e-09\RMSF=1
 .380e-04\Dipole=0.,0.,-0.4527241\PG=C*V [C*(H1Cl1)]\\@


 MICRO CREDO - NEVER TRUST A COMPUTER BIGGER
               BIGGER THAN YOU CAN LIFT.
 Job cpu time:       0 days  0 hours  1 minutes  5.0 seconds.
 Elapsed time:       0 days  0 hours  0 minutes 45.8 seconds.
 File lengths (MBytes):  RWF=     10 Int=      0 D2E=      0 Chk=      2 Scr=      1
 Normal termination of Gaussian 16 at Mon Apr 17 14:09:33 2023.
 Link1:  Proceeding to internal job step number  2.
 ----------------------------------------------------------------------
 #N Geom=AllCheck Guess=TCheck SCRF=Check GenChk RMP2(FC)/def2QZVPP Fre
 q
 ----------------------------------------------------------------------
 1/10=4,29=7,30=1,38=21,40=1,80=1/1,6,3;
 2/12=2,40=1/2;
 3/5=45,7=202,11=1,14=-4,25=1,30=1,70=2,71=2,116=1,140=1/1,2,3;
 4/5=101,69=2/1;
 5/5=2,32=2,38=6,98=1/2;
 8/6=3,8=1,10=1,19=11,30=-1/1;
 9/15=3,16=-3/6;
 11/6=1,8=1,15=11,17=12,24=-1,27=1,28=-2,29=300,32=6,42=3/1,2,10;
 10/6=2,21=1,60=-2/2;
 8/6=4,8=1,10=1,19=11,30=-1/11,4;
 10/5=1,20=4,60=-2/2;
 11/12=2,14=11,16=1,17=2,28=-2,42=3,76=2/2,10,12;
 6/7=2,8=2,9=2,10=2,22=-1/1;
 7/10=1,12=2,25=1,44=2,70=1,71=2/1,2,3,16;
 1/38=20,80=1/6(3);
 7/8=1,25=202,44=-1,70=1,71=1,92=10/16,17;
 1/10=4,30=1,38=20,80=1/3;
 99//99;
 3/5=45,7=202,11=1,14=-2,25=1,30=1,70=5,71=2,116=1,140=1/1,2,3;
 4/5=5,16=3,69=2/1;
 5/5=2,32=2,38=5,98=1/2;
 8/6=3,8=1,10=1,19=11,30=-1/1;
 9/15=3,16=-3/6;
 11/6=1,8=1,15=11,17=12,24=-1,27=1,28=-2,29=300,32=6,42=3/1,2,10;
 10/6=2,21=1,60=-2/2;
 8/6=4,8=1,10=1,19=11,30=-1/11,4;
 10/5=1,20=4,60=-2/2;
 11/12=2,14=11,16=1,17=2,28=-2,42=3,76=2/2,10,12;
 6/7=2,8=2,9=2,10=2,22=-1/1;
 7/7=1,10=1,12=2,25=1,44=2,70=1,71=1/1,2,3,16;
 1/38=20,80=1/6(-12);
 7/8=1,25=202,44=-1,70=1,71=1,92=10/16,17;
 1/10=4,30=1,38=20,80=1/3;
 99//99;
 Structure from the checkpoint file:  "/scratch-data/g16-scratch/Gau-131750.chk"
 -----
 H35Cl
 -----
 Charge =  0 Multiplicity = 1
 Redundant internal coordinates found in file.  (old form).
 H,0,0.,0.,-0.1355446339
 Cl,0,0.,0.,1.1355446339
 Recover connectivity data from disk.
 Numerical evaluation of third derivatives.
 Nuclear step= 0.010000 Angstroms, electric field step= 0.000333 atomic units, NStep=1.

 GradGradGradGradGradGradGradGradGradGradGradGradGradGradGradGradGradGrad
 Berny optimization.
 Initialization pass.
                           ----------------------------
                           !    Initial Parameters    !
                           ! (Angstroms and Degrees)  !
 --------------------------                            --------------------------
 ! Name  Definition              Value          Derivative Info.                !
 --------------------------------------------------------------------------------
 ! R1    R(1,2)                  1.2711         calculate D2E/DX2 analytically  !
 --------------------------------------------------------------------------------
 Trust Radius=3.00D-01 FncErr=1.00D-07 GrdErr=1.00D-07 EigMax=2.50D+02 EigMin=1.00D-04
 Number of steps in this run=      2 maximum allowed number of steps=      2.
 GradGradGradGradGradGradGradGradGradGradGradGradGradGradGradGradGradGrad

                          Input orientation:                          
 ---------------------------------------------------------------------
 Center     Atomic      Atomic             Coordinates (Angstroms)
 Number     Number       Type             X           Y           Z
 ---------------------------------------------------------------------
      1          1           0        0.000000    0.000000   -0.135545
      2         17           0        0.000000    0.000000    1.135545
 ---------------------------------------------------------------------
 Stoichiometry    ClH
 Framework group  C*V[C*(HCl)]
 Deg. of freedom     1
 Full point group                 C*V     NOp   4
 Largest Abelian subgroup         C2V     NOp   4
 Largest concise Abelian subgroup C1      NOp   1
                         Standard orientation:                         
 ---------------------------------------------------------------------
 Center     Atomic      Atomic             Coordinates (Angstroms)
 Number     Number       Type             X           Y           Z
 ---------------------------------------------------------------------
      1          1           0        0.000000    0.000000   -1.200473
      2         17           0        0.000000    0.000000    0.070616
 ---------------------------------------------------------------------
 Rotational constants (GHZ):           0.0000000         319.3152242         319.3152242
 Standard basis: def2QZVPP (5D, 7F)
 There are    55 symmetry adapted cartesian basis functions of A1  symmetry.
 There are    12 symmetry adapted cartesian basis functions of A2  symmetry.
 There are    27 symmetry adapted cartesian basis functions of B1  symmetry.
 There are    27 symmetry adapted cartesian basis functions of B2  symmetry.
 There are    43 symmetry adapted basis functions of A1  symmetry.
 There are    11 symmetry adapted basis functions of A2  symmetry.
 There are    23 symmetry adapted basis functions of B1  symmetry.
 There are    23 symmetry adapted basis functions of B2  symmetry.
   100 basis functions,   159 primitive gaussians,   121 cartesian basis functions
     9 alpha electrons        9 beta electrons
       nuclear repulsion energy         7.0774042501 Hartrees.
 NAtoms=    2 NActive=    2 NUniq=    2 SFac= 1.00D+00 NAtFMM=   60 NAOKFM=F Big=F
 Integral buffers will be    131072 words long.
 Raffenetti 1 integral format.
 Two-electron integral symmetry is turned on.
 One-electron integrals computed using PRISM.
   4 Symmetry operations used in ECPInt.
 ECPInt:  NShTT=     528 NPrTT=    1568 LenC2=     529 LenP2D=    1527.
 LDataN:  DoStor=T MaxTD1= 8 Len=  415
 NBasis=   100 RedAO= T EigKep=  5.54D-04  NBF=    43    11    23    23
 NBsUse=   100 1.00D-06 EigRej= -1.00D+00 NBFU=    43    11    23    23
 Initial guess from the checkpoint file:  "/scratch-data/g16-scratch/Gau-131750.chk"
 B after Tr=     0.000000    0.000000    0.000000
         Rot=    1.000000    0.000000    0.000000    0.000000 Ang=   0.00 deg.
 Initial guess orbital symmetries:
       Occupied  (SG) (SG) (SG) (PI) (PI) (SG) (SG) (PI) (PI)
       Virtual   (SG) (SG) (PI) (PI) (SG) (PI) (PI) (DLTA) (DLTA)
                 (SG) (SG) (PI) (PI) (SG) (SG) (PI) (PI) (SG) (PI)
                 (PI) (DLTA) (DLTA) (DLTA) (DLTA) (SG) (PHI) (PHI)
                 (PI) (PI) (SG) (DLTA) (DLTA) (PI) (PI) (SG) (SG)
                 (PI) (PI) (SG) (DLTA) (DLTA) (PI) (PI) (SG) (PHI)
                 (PHI) (?A) (?A) (DLTA) (DLTA) (SG) (PI) (PI) (PHI)
                 (PHI) (DLTA) (DLTA) (PI) (PI) (SG) (PI) (PI) (SG)
                 (PHI) (PHI) (DLTA) (DLTA) (SG) (PI) (PI) (SG)
                 (DLTA) (DLTA) (PI) (PI) (PI) (PI) (SG) (SG) (SG)
                 (DLTA) (DLTA) (PI) (PI) (SG) (SG) (PI) (PI) (SG)
                 (SG) (SG)
 Keep R1 ints in memory in symmetry-blocked form, NReq=17322509.
 Requested convergence on RMS density matrix=1.00D-08 within 128 cycles.
 Requested convergence on MAX density matrix=1.00D-06.
 Requested convergence on             energy=1.00D-06.
 No special actions if energy rises.
 SCF Done:  E(RHF) =  -460.112328549     A.U. after    1 cycles
            NFock=  1  Conv=0.67D-09     -V/T= 2.0000
 ExpMin= 8.03D-02 ExpMax= 1.47D+06 ExpMxC= 1.67D+03 IAcc=3 IRadAn=         5 AccDes= 0.00D+00
 HarFok:  IExCor=  205 AccDes= 0.00D+00 IRadAn=         5 IDoV=-2 UseB2=F ITyADJ=14
 ICtDFT= 12500011 ScaDFX=  1.000000  1.000000  1.000000  1.000000
 Range of M.O.s used for correlation:     6   100
 NBasis=   100 NAE=     9 NBE=     9 NFC=     5 NFV=     0
 NROrb=     95 NOA=     4 NOB=     4 NVA=    91 NVB=    91

 **** Warning!!: The largest alpha MO coefficient is  0.11614938D+02

 Disk-based method using ON**2 memory for  4 occupieds at a time.
 Permanent disk used for amplitudes=      818181 words.
 Estimated scratch disk usage=    13034152 words.
 Actual    scratch disk usage=    13034152 words.
 JobTyp=1 Pass  1:  I=   6 to   9 NPSUse=  2 ParTrn=T ParDer=T DoDerP=T.
 (rs|ai) integrals will be sorted in core.
 Spin components of T(2) and E(2):
     alpha-alpha T2 =       0.9403295943D-02 E2=     -0.2487289797D-01
     alpha-beta  T2 =       0.5677111493D-01 E2=     -0.1738934999D+00
     beta-beta   T2 =       0.9403295943D-02 E2=     -0.2487289797D-01
 ANorm=    0.1037100625D+01
 E2 =    -0.2236392959D+00 EUMP2 =    -0.46033596784443D+03
   4 Symmetry operations used in ECPInt.
 ECPInt:  NShTT=     528 NPrTT=    1568 LenC2=     529 LenP2D=    1527.
 LDataN:  DoStor=T MaxTD1= 9 Len=  602
 G2DrvN: will do     3 centers at a time, making    1 passes.
 Calling FoFCou, ICntrl=  3107 FMM=F I1Cent=   0 AccDes= 0.00D+00.
 End of G2Drv F.D. properties file   721 does not exist.
 End of G2Drv F.D. properties file   722 does not exist.
 End of G2Drv F.D. properties file   788 does not exist.
          IDoAtm=11
          Differentiating once with respect to electric field.
                with respect to dipole field.
          Differentiating once with respect to nuclear coordinates.
 Keep R1 ints in memory in symmetry-blocked form, NReq=17323182.
          There are     9 degrees of freedom in the 1st order CPHF.  IDoFFX=6 NUNeed=     9.
      6 vectors produced by pass  0 Test12= 9.10D-15 1.11D-08 XBig12= 4.79D+00 1.26D+00.
 AX will form     6 AO Fock derivatives at one time.
      6 vectors produced by pass  1 Test12= 9.10D-15 1.11D-08 XBig12= 1.94D-01 2.52D-01.
      6 vectors produced by pass  2 Test12= 9.10D-15 1.11D-08 XBig12= 3.61D-03 2.40D-02.
      6 vectors produced by pass  3 Test12= 9.10D-15 1.11D-08 XBig12= 7.18D-05 3.68D-03.
      6 vectors produced by pass  4 Test12= 9.10D-15 1.11D-08 XBig12= 1.44D-06 5.49D-04.
      6 vectors produced by pass  5 Test12= 9.10D-15 1.11D-08 XBig12= 2.01D-08 5.11D-05.
      6 vectors produced by pass  6 Test12= 9.10D-15 1.11D-08 XBig12= 1.34D-10 4.79D-06.
      3 vectors produced by pass  7 Test12= 9.10D-15 1.11D-08 XBig12= 4.93D-13 2.91D-07.
      1 vectors produced by pass  8 Test12= 9.10D-15 1.11D-08 XBig12= 1.31D-15 1.65D-08.
 InvSVY:  IOpt=1 It=  1 EMax= 4.44D-16
 Solved reduced A of dimension    46 with     6 vectors.
 End of Minotr F.D. properties file   721 does not exist.
 End of Minotr F.D. properties file   722 does not exist.
 End of Minotr F.D. properties file   788 does not exist.
 MDV=   104857600.
 Form MO integral derivatives with frozen-active canonical formalism.
 Discarding MO integrals.
 Reordered first order wavefunction length =      1341522
 In DefCFB: NBatch=  1 ICI=  9 ICA= 91 LFMax= 23
            Large arrays: LIAPS=    39639600 LIARS=    59657598 words.
 Semi-Direct transformation.
 ModeAB=           2 MOrb=             9 LenV=     104367349
 LASXX=      4202136 LTotXX=     4202136 LenRXX=     4202136
 LTotAB=     4326345 MaxLAS=     6642900 LenRXY=     6642900
 NonZer=     8404272 LenScr=    13360640 LnRSAI=           0
 LnScr1=           0 LExtra=           0 Total=     24205676
 MaxDsk=          -1 SrtSym=           F ITran=            4
 JobTyp=0 Pass  1:  I=   1 to   9.
 (rs|ai) integrals will be sorted in core.
 Spin components of T(2) and E(2):
     alpha-alpha T2 =       0.9403295943D-02 E2=     -0.2487289797D-01
     alpha-beta  T2 =       0.5677111493D-01 E2=     -0.1738934999D+00
     beta-beta   T2 =       0.9403295943D-02 E2=     -0.2487289797D-01
 ANorm=    0.1466681770D+01
 E2 =    -0.2236392959D+00 EUMP2 =    -0.46033596784443D+03
          IDoAtm=11
          Differentiating once with respect to electric field.
                with respect to dipole field.
          Differentiating once with respect to nuclear coordinates.
          There are     1 degrees of freedom in the 1st order CPHF.  IDoFFX=0 NUNeed=     1.
 LinEq1:  Iter=  0 NonCon=     1 RMS=1.89D-03 Max=2.11D-02 NDo=     1
 LinEq1:  Iter=  1 NonCon=     1 RMS=5.72D-04 Max=7.02D-03 NDo=     1
 LinEq1:  Iter=  2 NonCon=     1 RMS=1.29D-04 Max=1.75D-03 NDo=     1
 LinEq1:  Iter=  3 NonCon=     1 RMS=1.81D-05 Max=2.18D-04 NDo=     1
 LinEq1:  Iter=  4 NonCon=     1 RMS=4.18D-06 Max=4.33D-05 NDo=     1
 LinEq1:  Iter=  5 NonCon=     1 RMS=5.99D-07 Max=6.10D-06 NDo=     1
 LinEq1:  Iter=  6 NonCon=     1 RMS=8.93D-08 Max=6.53D-07 NDo=     1
 LinEq1:  Iter=  7 NonCon=     1 RMS=1.09D-08 Max=6.75D-08 NDo=     1
 LinEq1:  Iter=  8 NonCon=     1 RMS=1.16D-09 Max=1.47D-08 NDo=     1
 LinEq1:  Iter=  9 NonCon=     0 RMS=8.99D-11 Max=8.91D-10 NDo=     1
 Linear equations converged to 1.000D-10 1.000D-09 after     9 iterations.
 End of Minotr F.D. properties file   721 does not exist.
 End of Minotr F.D. properties file   722 does not exist.
 End of Minotr F.D. properties file   788 does not exist.
 Symmetrizing basis deriv contribution to polar:
 IMax=3 JMax=2 DiffMx= 0.00D+00
 G2DrvN: will do     3 centers at a time, making    1 passes.
 Calling FoFCou, ICntrl=  3107 FMM=F I1Cent=   0 AccDes= 0.00D+00.
 End of G2Drv F.D. properties file   721 does not exist.
 End of G2Drv F.D. properties file   722 does not exist.
 End of G2Drv F.D. properties file   788 does not exist.
 R2 and R3 integrals will be kept in memory, NReq=    58995369.
 DD1Dir will call FoFMem   1 times, MxPair=        90
 NAB=    45 NAA=     0 NBB=     0.
 Discarding MO integrals.

 **********************************************************************

            Population analysis using the MP2 Density.

 **********************************************************************

 Orbital symmetries:
       Occupied  (SG) (SG) (SG) (PI) (PI) (SG) (SG) (PI) (PI)
       Virtual   (SG) (SG) (PI) (PI) (SG) (PI) (PI) (DLTA) (DLTA)
                 (SG) (SG) (PI) (PI) (SG) (SG) (PI) (PI) (SG) (PI)
                 (PI) (DLTA) (DLTA) (DLTA) (DLTA) (SG) (PHI) (PHI)
                 (PI) (PI) (SG) (DLTA) (DLTA) (PI) (PI) (SG) (SG)
                 (PI) (PI) (SG) (DLTA) (DLTA) (PI) (PI) (SG) (PHI)
                 (PHI) (?A) (?A) (DLTA) (DLTA) (SG) (PI) (PI) (PHI)
                 (PHI) (DLTA) (DLTA) (PI) (PI) (SG) (PI) (PI) (SG)
                 (PHI) (PHI) (DLTA) (DLTA) (SG) (PI) (PI) (SG)
                 (DLTA) (DLTA) (PI) (PI) (PI) (PI) (SG) (SG) (SG)
                 (DLTA) (DLTA) (PI) (PI) (SG) (SG) (PI) (PI) (SG)
                 (SG) (SG)
 The electronic state is 1-SG.
 Alpha  occ. eigenvalues -- -104.84841 -10.57380  -8.04112  -8.03924  -8.03924
 Alpha  occ. eigenvalues --   -1.11733  -0.62654  -0.47688  -0.47688
 Alpha virt. eigenvalues --    0.09739   0.23035   0.28627   0.28627   0.30251
 Alpha virt. eigenvalues --    0.43588   0.43588   0.49397   0.49397   0.50292
 Alpha virt. eigenvalues --    0.67410   0.82915   0.82915   1.02653   1.19434
 Alpha virt. eigenvalues --    1.28686   1.28686   1.28958   1.38110   1.38110
 Alpha virt. eigenvalues --    1.41575   1.41575   1.50801   1.50801   1.53470
 Alpha virt. eigenvalues --    1.55683   1.55683   1.76549   1.76549   1.99534
 Alpha virt. eigenvalues --    2.33804   2.33804   2.46212   2.46212   2.65244
 Alpha virt. eigenvalues --    2.85735   2.98095   2.98095   3.16580   3.57701
 Alpha virt. eigenvalues --    3.57701   3.64859   3.64859   3.76711   3.90052
 Alpha virt. eigenvalues --    3.90052   3.93849   3.93849   4.06995   4.06995
 Alpha virt. eigenvalues --    4.16484   4.25897   4.25897   4.29549   4.29549
 Alpha virt. eigenvalues --    4.33731   4.33731   4.35337   4.35337   4.72532
 Alpha virt. eigenvalues --    4.95656   4.95656   5.12345   6.10093   6.10093
 Alpha virt. eigenvalues --    6.77886   6.77886   7.06855   7.31998   7.31998
 Alpha virt. eigenvalues --    7.45480   8.22645   8.22645   8.59518   8.59518
 Alpha virt. eigenvalues --    8.79296   8.79296   8.89172   9.20188  10.56284
 Alpha virt. eigenvalues --   11.25874  11.25874  11.34925  11.34925  12.29791
 Alpha virt. eigenvalues --   29.76763  43.27785  43.27785  43.44298 100.18055
 Alpha virt. eigenvalues --  530.39412
          Condensed to atoms (all electrons):
               1          2
     1  H    0.520800   0.310426
     2  Cl   0.310426  16.858349
 Mulliken charges:
               1
     1  H    0.168775
     2  Cl  -0.168775
 Sum of Mulliken charges =  -0.00000
 Mulliken charges with hydrogens summed into heavy atoms:
               1
     2  Cl  -0.000000
 APT charges:
               1
     1  H    0.204802
     2  Cl  -0.204802
 Sum of APT charges =   0.00000
 APT charges with hydrogens summed into heavy atoms:
               1
     2  Cl   0.000000
 Electronic spatial extent (au):  <R**2>=             34.0756
 Charge=             -0.0000 electrons
 Dipole moment (field-independent basis, Debye):
    X=              0.0000    Y=              0.0000    Z=             -1.1507  Tot=              1.1507
 Quadrupole moment (field-independent basis, Debye-Ang):
   XX=            -14.0312   YY=            -14.0312   ZZ=            -10.4412
   XY=              0.0000   XZ=              0.0000   YZ=              0.0000
 Traceless Quadrupole moment (field-independent basis, Debye-Ang):
   XX=             -1.1967   YY=             -1.1967   ZZ=              2.3934
   XY=              0.0000   XZ=              0.0000   YZ=              0.0000
 Octapole moment (field-independent basis, Debye-Ang**2):
  XXX=              0.0000  YYY=              0.0000  ZZZ=             -2.6487  XYY=              0.0000
  XXY=              0.0000  XXZ=             -0.0784  XZZ=              0.0000  YZZ=              0.0000
  YYZ=             -0.0784  XYZ=              0.0000
 Hexadecapole moment (field-independent basis, Debye-Ang**3):
 XXXX=            -16.4912 YYYY=            -16.4912 ZZZZ=            -13.8288 XXXY=              0.0000
 XXXZ=              0.0000 YYYX=              0.0000 YYYZ=              0.0000 ZZZX=              0.0000
 ZZZY=              0.0000 XXYY=             -5.4971 XXZZ=             -5.8359 YYZZ=             -5.8359
 XXYZ=              0.0000 YYXZ=              0.0000 ZZXY=              0.0000
 N-N= 7.077404250146D+00 E-N=-1.110201134496D+03  KE= 4.603342894679D+02
 Symmetry A1   KE= 3.687591504045D+02
 Symmetry A2   KE= 4.188715708713D-02
 Symmetry B1   KE= 4.576662595316D+01
 Symmetry B2   KE= 4.576662595316D+01
  Exact polarizability:  13.532   0.000  13.532   0.000   0.000  16.343
 Approx polarizability:  12.777  -0.000  12.777  -0.000  -0.000  16.376
 PrsmSu:  requested number of processors reduced to:   1 ShMem   1 Linda.
   4 Symmetry operations used in ECPInt.
 ECPInt:  NShTT=     528 NPrTT=    1568 LenC2=     529 LenP2D=    1527.
 LDataN:  DoStor=T MaxTD1=10 Len=  848
 Calling FoFJK, ICntrl=  10100127 FMM=F ISym2X=1 I1Cent= 0 IOpClX= 0 NMat=1 NMatS=1 NMatT=0.
 Full mass-weighted force constant matrix:
 Low frequencies ---  -51.8008  -51.8008   -0.0031   -0.0031    0.0056 3055.1280
 Diagonal vibrational polarizability:
        0.0000000       0.0000000       0.1617838
 Harmonic frequencies (cm**-1), IR intensities (KM/Mole), Raman scattering
 activities (A**4/AMU), depolarization ratios for plane and unpolarized
 incident light, reduced masses (AMU), force constants (mDyne/A),
 and normal coordinates:
                      1
                     SG
 Frequencies --   3055.1280
 Red. masses --      1.0360
 Frc consts  --      5.6974
 IR Inten    --     56.1126
  Atom  AN      X      Y      Z
     1   1     0.00   0.00   1.00
     2  17     0.00   0.00  -0.03

 -------------------
 - Thermochemistry -
 -------------------
 Temperature   298.150 Kelvin.  Pressure   1.00000 Atm.
 Atom     1 has atomic number  1 and mass   1.00783
 Atom     2 has atomic number 17 and mass  34.96885
 Molecular mass:    35.97668 amu.
 Principal axes and moments of inertia in atomic units:
                           1         2         3
     Eigenvalues --     0.00000   5.65191   5.65191
           X            0.00000  -0.00000   1.00000
           Y            0.00000   1.00000   0.00000
           Z            1.00000   0.00000   0.00000
 This molecule is a prolate symmetric top.
 Rotational symmetry number  1.
 Rotational temperature (Kelvin)     15.32471
 Rotational constant (GHZ):         319.315224
 Zero-point vibrational energy      18273.7 (Joules/Mol)
                                    4.36752 (Kcal/Mol)
 Vibrational temperatures:   4395.65
          (Kelvin)
 
 Zero-point correction=                           0.006960 (Hartree/Particle)
 Thermal correction to Energy=                    0.009321
 Thermal correction to Enthalpy=                  0.010265
 Thermal correction to Gibbs Free Energy=        -0.010905
 Sum of electronic and zero-point Energies=           -460.329008
 Sum of electronic and thermal Energies=              -460.326647
 Sum of electronic and thermal Enthalpies=            -460.325703
 Sum of electronic and thermal Free Energies=         -460.346873
 
                     E (Thermal)             CV                S
                      KCal/Mol        Cal/Mol-Kelvin    Cal/Mol-Kelvin
 Total                    5.849              4.968             44.556
 Electronic               0.000              0.000              0.000
 Translational            0.889              2.981             36.671
 Rotational               0.592              1.987              7.885
 Vibrational              4.368              0.000              0.000
                       Q            Log10(Q)             Ln(Q)
 Total Bot       0.103779D+06          5.016110         11.550020
 Total V=0       0.165017D+09          8.217528         18.921558
 Vib (Bot)       0.628901D-03         -3.201418         -7.371537
 Vib (V=0)       0.100000D+01          0.000000          0.000000
 Electronic      0.100000D+01          0.000000          0.000000
 Translational   0.848175D+07          6.928485         15.953427
 Rotational      0.194555D+02          1.289042          2.968130

     ==================================================
      Anharmonic Data: Displacement Vectors Definition
     ==================================================

 Framework definition based on atomic masses: C*V 
 NOTE: Degenerate modes will be reoriented, following the conventions
       from: L. Henry, G. Amat, J. Mol. Spectrosc. 1961, 5, 319
 Linear top along axis: Z
                 1 
      1   0.000000D+00
      2   0.000000D+00
      3   0.982059D+00
      4   0.000000D+00
      5   0.000000D+00
      6  -0.283036D-01
                 1 
      1   0.000000D+00
      2   0.000000D+00
      3   0.982059D+00
      4   0.000000D+00
      5   0.000000D+00
      6  -0.283036D-01

 **********************************************************************

                  Harmonic vibro-rotational analysis

 **********************************************************************


     ==================================================
               Analysis of the Rotor Symmetry
     ==================================================

 Framework Group : C*V 
 Rotor Type      : Linear Molecule
 Inertia moments : X=     1.58270 , Y=     1.58270 , Z=     0.00000
 Representation  : Ir Representation, Iz < Ix < Iy

 Axes Definition for the Symmetric-Top Representation
 ----------------------------------------------------
 Axis Z automatically chosen to be collinear with Z from Eckart orient.
 NOTE: In Vibro-rotational analysis, this will be referred to as the
       spectroscopic orientation.

     ==================================================
        Vibro-Rotational Analysis Based on Symmetry
     ==================================================

 Representation SG  
 ------------------
    Z Translation
    1 Vibrations with frequencies:
   3055.13

 Representation PI   (doubly degenerate)
 --------------------------------------
    X Translation
    Y Translation
    X Rotation
    Y Rotation
 No Vibration

 Input/Output information
 ------------------------
 Normal modes will be PRINTED in DESCENDING order (imag. freq. first)
   and sorted by irreducible representation
 The connection between this new numbering (A) and the one used before
   (H) is reported in the present equivalency table:
 ----+------+
 (H) |     1|
 (A) |     1|
 ----+------+

[...]
 : K  =  Cubic Force Const.[Hartree*amu(-3/2)*Bohr(-3)] :
 :......................................................:

      I      J      K          FI(I,J,K)     k(I,J,K)     K(I,J,K)

      1      1      1          1773.25417     30.38450      1.03275

 Num. of 3rd derivatives larger than  0.371D-04: 1 over 1

 ........................................................
 :                                                      :
 :       QUARTIC FORCE CONSTANTS IN NORMAL MODES        :
 :                                                      :
 : FI =  Reduced values [cm-1]  (default input)         :
 : k  =  Quartic Force Const.[AttoJ*amu(-2)*Ang(-4)]    :
 : K  =  Quartic Force Const.[Hartree*amu(-2)*Bohr(-4)] :
 :......................................................:

      I      J      K      L  FI(I,J,K,L)   k(I,J,K,L)   K(I,J,K,L)

      1      1      1      1    916.30080    149.45850      2.68822

 Num. of 4th derivatives larger than  0.371D-04: 1 over 1

     ==================================================
                     Input for POLYMODE
     ==================================================

 ***************** cut here for POLYMODE input *****************
  1,  1,  1,  1,  1,  0,  0,  5,  0
SCF-CI
          Input generated by DiNa
  1, 1,  0.968858D-04 /
  1, 1, 1, 0.221158D-05 /
  1, 1, 1, 1, 0.337080D-07 /
 0.103028D+05,0.103028D+05,0.000000D+00 /
 ***************** cut here for POLYMODE input *****************

     ==================================================
      Inertia Moments Derivatives w.r.t. Normal Modes
     ==================================================

 Units: amu^1/2.Ang

                 Ixx        Ixy        Iyy        Ixz        Iyz        Izz
 Q(     1)    -2.51611    0.00000   -2.51611    0.00000    0.00000    0.00000

     ==================================================
               Vibro-rotational Alpha Matrix
     ==================================================

 Vibro-Rot alpha Matrix (in cm^-1)
 ---------------------------------
                 A(z)           B(x)           C(y)
 Q(     1)       -0.00000            NaN            NaN

 Vibro-Rot alpha Matrix (in MHz)
 -------------------------------
                 A(z)           B(x)           C(y)
 Q(     1)       -0.00000            NaN            NaN

     ==================================================
          Quartic Centrifugal Distortion Constants
     ==================================================

 NOTE: Values in Cartesian coords. refer to the structure in Eckart orientation.

 Quartic Centrifugal Distortion Constants Tau Prime
 --------------------------------------------------
                      cm^-1                    MHz
 TauP aaaa      0.0000000000D+00         0.0000000000D+00
 TauP bbaa      0.0000000000D+00         0.0000000000D+00
 TauP bbbb     -0.2071371120D-02        -0.6209814395D+02
 cm-1                       MHz
 De    0.5178427800D-03         0.1552453599D+02

     ==================================================
           Sextic Centrifugal Distortion Constants
     ==================================================

 Sextic Distortion Constants
 ---------------------------
                       in cm-1                  in Hz
 Phi aaa         0.7619363395-314         0.0000000000D+00
 Phi aab         0.0000000000D+00         0.0000000000D+00
 Phi abb         0.7695989420-316         0.0000000000D+00
 Phi bbb         0.1719634587D-07         0.5155334796D+03

 Linear molecule
 ---------------
                       cm^-1                    Hz
 He               0.1719634587D-07         0.5155334796D+03

     ==================================================
       Average Coordinates and Mean Square Amplitudes
     ==================================================

 NOTE: Temperature is given in K between parentheses
       For Cartesian and internal coords., units are given between
       parentheses next to each label

 Mean Square Amplitudes of Normal Coordinates (in amu.bohr^2)
 -----------------------------------------------------------
 Mode    <Q^2> (0)    <Q^2> (298.15)    <Q^2> (298.15) class.
    1     0.019704       0.019704          0.105528

 Average Normal Coordinates (in amu^1/2.bohr)
 --------------------------------------------
   Mode    <Q> (0)       <Q> (298.15)
      1    -0.028806       -0.028806

 Mean Square Amplitudes of Cartesian Coordinates
 -----------------------------------------------
    Label        <(S-Se)^2>^1/2 (0)    <(S-Se)^2>^1/2 (298.15)
 X(1)  (Angs)        0.000000              0.000000
 Y(1)  (Angs)        0.000000              0.000000
 Z(1)  (Angs)        0.072949              0.072949
 X(2)  (Angs)        0.000000              0.000000
 Y(2)  (Angs)        0.000000              0.000000
 Z(2)  (Angs)        0.002102              0.002102

 Average Cartesian Coordinates
 -----------------------------
    Label              Se         <S> = Sz (0)   <S> = Sz (298.15)
 X(1)  (Angs)       0.000000        0.000000        0.000000
 Y(1)  (Angs)       0.000000        0.000000        0.000000
 Z(1)  (Angs)      -1.235482       -1.250452       -1.250452
 X(2)  (Angs)       0.000000        0.000000        0.000000
 Y(2)  (Angs)       0.000000        0.000000        0.000000
 Z(2)  (Angs)       0.035607        0.036039        0.036039

 Internal coordinates for the Equilibrium structure (Se)
                           Interatomic distances:
                    1          2
     1  H    0.000000
     2  Cl   1.271089   0.000000

 Internal coordinates for the vibrationally average structure at 0K (Sz)
                           Interatomic distances:
                    1          2
     1  H    0.000000
     2  Cl   1.286491   0.000000

 Internal coordinates for the vibr. average structure at 298.15K (Sa)
                           Interatomic distances:
                    1          2
     1  H    0.000000
     2  Cl   1.286491   0.000000

     ==================================================
      Vibrational Average of Electric-Field Properties
     ==================================================

 Electric dipole
 ---------------
 ------------------------------------------------------------------------
  Property at reference geometry, Unit: Debye
 ------------------------------------------------------------------------
     X=     0.0000     Y=     0.0000     Z=    -1.1507
 ------------------------------------------------------------------------
  Temperature:     0K, Unit: Debye
 ------------------------------------------------------------------------
     X=    -0.0000     Y=     0.0000     Z=    -1.1698
 ------------------------------------------------------------------------
  Temperature:   298K, Unit: Debye
 ------------------------------------------------------------------------
     X=    -0.0000     Y=     0.0000     Z=    -1.1699

     ==================================================
           Magnetic-Field Properties Data Sources
     ==================================================

 Available properties:
 ---------------------
 - Nuclear quadrupole tensors


     ==================================================
          Nuclear Magnetic Resonance Spectroscopy
     ==================================================

 Nuclear quadrupole tensors
 --------------------------
   Baa, Bbb, Bcc   : eigenvalues
   V(a), V(b), V(c): eigenvectors
 ------------------------------------------------------------------------
  Property at reference geometry
 ------------------------------------------------------------------------
 NUCLEAR QUADRUPOLE COUPLING CONSTANTS [CHI]:
                        a.u       MHz      Gauss     cm^-1   V(a)    V(b)    V(c)
              Baa    -3.3378   -64.035   -22.849   -21.360  0.0000  0.0000  1.0000
     2 Cl(35) Bbb     1.6689    32.017    11.425    10.680 -0.0000  1.0000  0.0000
              Bcc     1.6689    32.017    11.425    10.680  1.0000  0.0000  0.0000
 
 ------------------------------------------------------------------------
  Temperature:     0K
 ------------------------------------------------------------------------
 NUCLEAR QUADRUPOLE COUPLING CONSTANTS [CHI]:
                        a.u       MHz      Gauss     cm^-1   V(a)    V(b)    V(c)
              Baa    -3.3759   -64.765   -23.110   -21.603 -0.0000 -0.0000  1.0000
     2 Cl(35) Bbb     1.6879    32.383    11.555    10.802  0.9509 -0.3094  0.0000
              Bcc     1.6879    32.383    11.555    10.802  0.3094  0.9509  0.0000
 
 ------------------------------------------------------------------------
  Temperature:   298K
 ------------------------------------------------------------------------
 NUCLEAR QUADRUPOLE COUPLING CONSTANTS [CHI]:
                        a.u       MHz      Gauss     cm^-1   V(a)    V(b)    V(c)
              Baa    -3.3759   -64.765   -23.110   -21.603 -0.0000 -0.0000  1.0000
     2 Cl(35) Bbb     1.6879    32.383    11.555    10.802  0.9509 -0.3094  0.0000
              Bcc     1.6879    32.383    11.555    10.802  0.3094  0.9509  0.0000
 

     ==================================================
                     Anharmonic X Matrix
     ==================================================

 PT2 model: Deperturbed VPT2 (DVPT2)
 Ref.: V. Barone, J. Chem. Phys. 122, 1, 014108 (2005)

 Coriolis contributions to X Matrix (in cm^-1)
 ---------------------------------------------
                1
      1  0.000000D+00

 3rd Deriv. contributions to X Matrix (in cm^-1)
 -----------------------------------------------
                1
      1 -0.107211D+03

 4th Deriv. contributions to X Matrix (in cm^-1)
 -----------------------------------------------
                1
      1  0.572688D+02

 Total Anharmonic X Matrix (in cm^-1)
 ------------------------------------
                1
      1 -0.499427D+02

     ==================================================
                Anharmonic Zero Point Energy
     ==================================================

 Anharmonic X0 Term
 ------------------
 U term         : cm-1 =     0.00000 ; Kcal/mol =   0.000 ; KJ/mol =   0.000
 Coriolis       : cm-1 =     0.00000 ; Kcal/mol =   0.000 ; KJ/mol =   0.000
 Anharmonic     : cm-1 =     1.80919 ; Kcal/mol =   0.005 ; KJ/mol =   0.022
 Total X0       : cm-1 =     1.80919 ; Kcal/mol =   0.005 ; KJ/mol =   0.022

 Anharmonic Zero Point Energy
 ----------------------------
 Harmonic       : cm-1 =  1527.56402 ; Kcal/mol =   4.368 ; KJ/mol =  18.274
 Anharmonic Pot.: cm-1 =   -10.67648 ; Kcal/mol =  -0.031 ; KJ/mol =  -0.128
 Watson+Coriolis: cm-1 =     0.00000 ; Kcal/mol =   0.000 ; KJ/mol =   0.000
 Total Anharm   : cm-1 =  1516.88754 ; Kcal/mol =   4.337 ; KJ/mol =  18.146

     ==================================================
          Vibrational Energies at Anharmonic Level
     ==================================================

 Units: Vibrational energies and rotational constants in cm^-1.
 NOTE: Transition energies are given with respect to the ground state.

 Reference Data
 --------------
                              E(harm)  E(anharm)     Ba(x)      Ca(y)
 Equilibrium Geometry                             10.651209  10.651209
 Ground State                 1527.564  1516.888        NaN        NaN

 Fundamental Bands
 -----------------
     Mode(n)      Status      E(harm)  E(anharm)     Ba(x)      Ca(y)
        1(1)      active      3055.128  2955.243        NaN        NaN

 Overtones
 ---------
     Mode(n)                  E(harm)  E(anharm)     Ba(x)      Ca(y)
        1(2)                  6110.256  5810.600        NaN        NaN

 WARNING: Anharmonic transition moments for symmetric and linear tops
          are not yet fully implemented.

     ==================================================
               Anharmonic Transition Moments
     ==================================================

 Electric dipole : Fundamental Bands
 ------------------------------------------------------------------------
   Mode(n)                            X               Y               Z
      1(1)                       0.460167D-14   -0.644519D-14    0.341433D-01

 Electric dipole : Overtones
 ------------------------------------------------------------------------
   Mode(n)                            X               Y               Z
      1(2)                      -0.951382D-14    0.133253D-13    0.240584D-02

 Electric dipole : Combination Bands
 ------------------------------------------------------------------------
   Mode(n)     Mode(n)                X               Y               Z

     ==================================================
              Anharmonic Infrared Spectroscopy
     ==================================================

 Units: Transition energies (E) in cm^-1
        Integrated intensity (I) in km.mol^-1

 Fundamental Bands
 -----------------
   Mode(n)                  E(harm)   E(anharm)        I(harm)       I(anharm)
      1(1)                  3055.128   2955.243     56.11262719     55.79049501

 Overtones
 ---------
   Mode(n)                  E(harm)   E(anharm)                      I(anharm)
      1(2)                  6110.256   5810.600                      0.54464194

 Units: Transition energies (E) in cm^-1
        Dipole strengths (DS) in 10^-40 esu^2.cm^2

 Fundamental Bands
 -----------------
   Mode(n)                  E(harm)   E(anharm)       DS(harm)      DS(anharm)
      1(1)                  3055.128   2955.243     73.27209177     75.31378443

 Overtones
 ---------
   Mode(n)                  E(harm)   E(anharm)                     DS(anharm)
      1(2)                  6110.256   5810.600                      0.37393620


 GradGradGradGradGradGradGradGradGradGradGradGradGradGradGradGradGradGrad
 Berny optimization.
 Internal  Forces:  Max     0.000238954 RMS     0.000238954
 Search for a local minimum.
 Step number   1 out of a maximum of    2
 All quantities printed in internal units (Hartrees-Bohrs-Radians)
 Second derivative matrix not updated -- analytic derivatives used.
 The second derivative matrix:
                          R1
           R1           0.34602
 ITU=  0
     Eigenvalues ---    0.34602
 Angle between quadratic step and forces=   0.00 degrees.
 Linear search not attempted -- first point.
 Iteration  1 RMS(Cart)=  0.00048832 RMS(Int)=  0.00000000
 Iteration  2 RMS(Cart)=  0.00000000 RMS(Int)=  0.00000000
 ClnCor:  largest displacement from symmetrization is 0.00D+00 for atom     0.
 Variable       Old X    -DE/DX   Delta X   Delta X   Delta X     New X
                                 (Linear)    (Quad)   (Total)
    R1        2.40201   0.00024   0.00000   0.00069   0.00069   2.40270
         Item               Value     Threshold  Converged?
 Maximum Force            0.000239     0.000450     YES
 RMS     Force            0.000239     0.000300     YES
 Maximum Displacement     0.000345     0.001800     YES
 RMS     Displacement     0.000488     0.001200     YES
 Predicted change in Energy=-8.250915D-08
 Optimization completed.
    -- Stationary point found.
                           ----------------------------
                           !   Optimized Parameters   !
                           ! (Angstroms and Degrees)  !
 --------------------------                            --------------------------
 ! Name  Definition              Value          Derivative Info.                !
 --------------------------------------------------------------------------------
 ! R1    R(1,2)                  1.2711         -DE/DX =    0.0002              !
 --------------------------------------------------------------------------------
 GradGradGradGradGradGradGradGradGradGradGradGradGradGradGradGradGradGrad


 ----------------------------------------------------------------------

 Electric dipole moment (input orientation):
 (Debye = 10**-18 statcoulomb cm , SI units = C m)
                  (au)            (Debye)         (10**-30 SI)
   Tot        0.452724D+00      0.115071D+01      0.383836D+01
   x          0.000000D+00      0.000000D+00      0.000000D+00
   y          0.000000D+00      0.000000D+00      0.000000D+00
   z         -0.452724D+00     -0.115071D+01     -0.383836D+01

 Dipole polarizability, Alpha (input orientation).
 (esu units = cm**3 , SI units = C**2 m**2 J**-1)
 Alpha(0;0):
               (au)            (10**-24 esu)      (10**-40 SI)
   iso        0.144691D+02      0.214409D+01      0.238562D+01
   aniso      0.281060D+01      0.416487D+00      0.463405D+00
   xx         0.135322D+02      0.200526D+01      0.223116D+01
   yx         0.000000D+00      0.000000D+00      0.000000D+00
   yy         0.135322D+02      0.200526D+01      0.223116D+01
   zx         0.000000D+00      0.000000D+00      0.000000D+00
   zy         0.000000D+00      0.000000D+00      0.000000D+00
   zz         0.163428D+02      0.242175D+01      0.269456D+01

 ----------------------------------------------------------------------

 Dipole orientation:
     1          0.00000000          0.00000000          0.25614224
    17          0.00000000          0.00000000         -2.14586836

 Electric dipole moment (dipole orientation):
 (Debye = 10**-18 statcoulomb cm , SI units = C m)
                  (au)            (Debye)         (10**-30 SI)
   Tot        0.452724D+00      0.115071D+01      0.383836D+01
   x          0.000000D+00      0.000000D+00      0.000000D+00
   y          0.000000D+00      0.000000D+00      0.000000D+00
   z          0.452724D+00      0.115071D+01      0.383836D+01

 Dipole polarizability, Alpha (dipole orientation).
 (esu units = cm**3 , SI units = C**2 m**2 J**-1)
 Alpha(0;0):
               (au)            (10**-24 esu)      (10**-40 SI)
   iso        0.144691D+02      0.214409D+01      0.238562D+01
   aniso      0.281060D+01      0.416487D+00      0.463405D+00
   xx         0.135322D+02      0.200526D+01      0.223116D+01
   yx         0.000000D+00      0.000000D+00      0.000000D+00
   yy         0.135322D+02      0.200526D+01      0.223116D+01
   zx         0.000000D+00      0.000000D+00      0.000000D+00
   zy         0.000000D+00      0.000000D+00      0.000000D+00
   zz         0.163428D+02      0.242175D+01      0.269456D+01

 ----------------------------------------------------------------------
 1\1\GINC-SUGARCUBE\Freq\RMP2-FC\def2QZVPP\Cl1H1\JUPYTER-BRANDONC\17-Ap
 r-2023\0\\#N Geom=AllCheck Guess=TCheck SCRF=Check GenChk RMP2(FC)/def
 2QZVPP Freq\\H35Cl\\0,1\H,0.,0.,-0.1355446339\Cl,0.,0.,1.1355446339\\V
 ersion=ES64L-G16RevB.01\State=1-SG\HF=-460.1123285\MP2=-460.3359678\RM
 SD=6.744e-10\RMSF=1.380e-04\ZeroPoint=0.0069601\Thermal=0.0093206\Dipo
 le=0.,0.,-0.4527242\DipoleDeriv=0.1884771,0.,0.,0.,0.1884771,0.,0.,0.,
 0.2374529,-0.1884771,0.,0.,0.,-0.1884771,0.,0.,0.,-0.2374529\Polar=13.
 5321894,0.,13.5321894,0.,0.,16.3427861\Quadrupole=-0.8897006,-0.889700
 6,1.7794013,0.,0.,0.\PG=C*V [C*(H1Cl1)]\NImag=0\\-0.00009947,0.,-0.000
 09947,0.,0.,0.34601566,0.00009947,0.,0.,-0.00009947,0.,0.00009947,0.,0
 .,-0.00009947,0.,0.,-0.34601566,0.,0.,0.34601566\\0.,0.,0.00023895,0.,
 0.,-0.00023895\\-0.14569431,0.,-0.14569431,0.,0.,1.01167244,0.14569431
 ,0.,0.,-0.14569431,0.,0.14569431,0.,0.,-0.14569431,0.,0.,-1.01167244,0
 .,0.,1.01167244,-0.54801919,0.,-0.54801918,0.,0.,2.63335607,0.54801919
 ,0.,0.,-0.54801910,0.,0.54801918,0.,0.,-0.54801910,0.,0.,-2.63335607,0
 .,0.,2.63335608\\@


 IT IS A PROFOUNDLY ERRONEOUS TRUISM ... THAT WE SHOULD CULTIVATE
 THE HABIT OF THINKING OF WHAT WE ARE DOING.
 THE PRECISE OPPOSITE IS THE CASE.
 CIVILIZATION ADVANCES BY EXTENDING THE NUMBER OF IMPORTANT OPERATIONS
 WHICH WE CAN PERFORM WITHOUT THINKING ABOUT THEM.

                                    -- ALFRED NORTH WHITEHEAD
 Job cpu time:       0 days  0 hours  6 minutes 46.5 seconds.
 Elapsed time:       0 days  0 hours  3 minutes 23.8 seconds.
 File lengths (MBytes):  RWF=    828 Int=      0 D2E=      0 Chk=     40 Scr=      1
 Normal termination of Gaussian 16 at Mon Apr 17 14:12:58 2023.
