 Entering Gaussian System, Link 0=g16
 Input=input.com
 Output=input.log
 Initial command:
 /usr/bin/g16/l1.exe "/scratch-data/g16-scratch/Gau-253987.inp" -scrdir="/scratch-data/g16-scratch/"
 Entering Link 1 = /usr/bin/g16/l1.exe PID=    253989.
  
 Copyright (c) 1988-2017, Gaussian, Inc.  All Rights Reserved.
  
 This is part of the Gaussian(R) 16 program.  It is based on
 the Gaussian(R) 09 system (copyright 2009, Gaussian, Inc.),
 the Gaussian(R) 03 system (copyright 2003, Gaussian, Inc.),
 the Gaussian(R) 98 system (copyright 1998, Gaussian, Inc.),
 the Gaussian(R) 94 system (copyright 1995, Gaussian, Inc.),
 the Gaussian 92(TM) system (copyright 1992, Gaussian, Inc.),
 the Gaussian 90(TM) system (copyright 1990, Gaussian, Inc.),
 the Gaussian 88(TM) system (copyright 1988, Gaussian, Inc.),
 the Gaussian 86(TM) system (copyright 1986, Carnegie Mellon
 University), and the Gaussian 82(TM) system (copyright 1983,
 Carnegie Mellon University). Gaussian is a federally registered
 trademark of Gaussian, Inc.
  
 This software contains proprietary and confidential information,
 including trade secrets, belonging to Gaussian, Inc.
  
 This software is provided under written license and may be
 used, copied, transmitted, or stored only in accord with that
 written license.
  
 The following legend is applicable only to US Government
 contracts under FAR:
  
                    RESTRICTED RIGHTS LEGEND
  
 Use, reproduction and disclosure by the US Government is
 subject to restrictions as set forth in subparagraphs (a)
 and (c) of the Commercial Computer Software - Restricted
 Rights clause in FAR 52.227-19.
  
 Gaussian, Inc.
 340 Quinnipiac St., Bldg. 40, Wallingford CT 06492
  
  
 ---------------------------------------------------------------
 Warning -- This program may not be used in any manner that
 competes with the business of Gaussian, Inc. or will provide
 assistance to any competitor of Gaussian, Inc.  The licensee
 of this program is prohibited from giving any competitor of
 Gaussian, Inc. access to this program.  By using this program,
 the user acknowledges that Gaussian, Inc. is engaged in the
 business of creating and licensing software in the field of
 computational chemistry and represents and warrants to the
 licensee that it is not a competitor of Gaussian, Inc. and that
 it will not use this program in any manner prohibited above.
 ---------------------------------------------------------------
  

 Cite this work as:
 Gaussian 16, Revision B.01,
 M. J. Frisch, G. W. Trucks, H. B. Schlegel, G. E. Scuseria, 
 M. A. Robb, J. R. Cheeseman, G. Scalmani, V. Barone, 
 G. A. Petersson, H. Nakatsuji, X. Li, M. Caricato, A. V. Marenich, 
 J. Bloino, B. G. Janesko, R. Gomperts, B. Mennucci, H. P. Hratchian, 
 J. V. Ortiz, A. F. Izmaylov, J. L. Sonnenberg, D. Williams-Young, 
 F. Ding, F. Lipparini, F. Egidi, J. Goings, B. Peng, A. Petrone, 
 T. Henderson, D. Ranasinghe, V. G. Zakrzewski, J. Gao, N. Rega, 
 G. Zheng, W. Liang, M. Hada, M. Ehara, K. Toyota, R. Fukuda, 
 J. Hasegawa, M. Ishida, T. Nakajima, Y. Honda, O. Kitao, H. Nakai, 
 T. Vreven, K. Throssell, J. A. Montgomery, Jr., J. E. Peralta, 
 F. Ogliaro, M. J. Bearpark, J. J. Heyd, E. N. Brothers, K. N. Kudin, 
 V. N. Staroverov, T. A. Keith, R. Kobayashi, J. Normand, 
 K. Raghavachari, A. P. Rendell, J. C. Burant, S. S. Iyengar, 
 J. Tomasi, M. Cossi, J. M. Millam, M. Klene, C. Adamo, R. Cammi, 
 J. W. Ochterski, R. L. Martin, K. Morokuma, O. Farkas, 
 J. B. Foresman, and D. J. Fox, Gaussian, Inc., Wallingford CT, 2016.
 
 ******************************************
 Gaussian 16:  ES64L-G16RevB.01 20-Dec-2017
                 8-Mar-2023 
 ******************************************
 %nproc=2
 Will use up to    2 processors via shared memory.
 %mem=400MB
 ------------------------------------
 # HF 6-31G(d,p) # opt freq scf=tight
 ------------------------------------
 1/18=20,19=15,38=1/1,3;
 2/9=110,12=2,17=6,18=5,40=1/2;
 3/5=1,6=6,7=101,11=9,25=1,30=1,71=1/1,2,3;
 4//1;
 5/5=2,32=2,38=5/2;
 6/7=2,8=2,9=2,10=2,28=1/1;
 7//1,2,3,16;
 1/18=20,19=15/3(2);
 2/9=110/2;
 99//99;
 2/9=110/2;
 3/5=1,6=6,7=101,11=9,25=1,30=1,71=1/1,2,3;
 4/5=5,16=3,69=1/1;
 5/5=2,32=2,38=5/2;
 7//1,2,3,16;
 1/18=20,19=15/3(-5);
 2/9=110/2;
 6/7=2,8=2,9=2,10=2,19=2,28=1/1;
 99/9=1/99;
 ------------------
 F Atom Calculation
 ------------------
 Symbolic Z-matrix:
 Charge =  1 Multiplicity = 1
 O                     0.        0.        0. 
 H                     0.92     -0.53      0. 
 H                    -0.92     -0.53      0. 
 H                     0.        1.06      0. 
 

 GradGradGradGradGradGradGradGradGradGradGradGradGradGradGradGradGradGrad
 Berny optimization.
 Initialization pass.
                           ----------------------------
                           !    Initial Parameters    !
                           ! (Angstroms and Degrees)  !
 --------------------------                            --------------------------
 ! Name  Definition              Value          Derivative Info.                !
 --------------------------------------------------------------------------------
 ! R1    R(1,2)                  1.0617         estimate D2E/DX2                !
 ! R2    R(1,3)                  1.0617         estimate D2E/DX2                !
 ! R3    R(1,4)                  1.06           estimate D2E/DX2                !
 ! A1    A(2,1,3)              120.1086         estimate D2E/DX2                !
 ! A2    A(2,1,4)              119.9457         estimate D2E/DX2                !
 ! A3    A(3,1,4)              119.9457         estimate D2E/DX2                !
 ! D1    D(2,1,4,3)            180.0            estimate D2E/DX2                !
 --------------------------------------------------------------------------------
 Trust Radius=3.00D-01 FncErr=1.00D-07 GrdErr=1.00D-07 EigMax=2.50D+02 EigMin=1.00D-04
 Number of steps in this run=     20 maximum allowed number of steps=    100.
 GradGradGradGradGradGradGradGradGradGradGradGradGradGradGradGradGradGrad

                          Input orientation:                          
 ---------------------------------------------------------------------
 Center     Atomic      Atomic             Coordinates (Angstroms)
 Number     Number       Type             X           Y           Z
 ---------------------------------------------------------------------
      1          8           0        0.000000    0.000000    0.000000
      2          1           0        0.920000   -0.530000    0.000000
      3          1           0       -0.920000   -0.530000    0.000000
      4          1           0        0.000000    1.060000    0.000000
 ---------------------------------------------------------------------
                    Distance matrix (angstroms):
                    1          2          3          4
     1  O    0.000000
     2  H    1.061744   0.000000
     3  H    1.061744   1.840000   0.000000
     4  H    1.060000   1.836981   1.836981   0.000000
 Stoichiometry    H3O(1+)
 Framework group  C2V[C2(OH),SGV(H2)]
 Deg. of freedom     3
 Full point group                 C2V     NOp   4
 Largest Abelian subgroup         C2V     NOp   4
 Largest concise Abelian subgroup C2      NOp   2
                         Standard orientation:                         
 ---------------------------------------------------------------------
 Center     Atomic      Atomic             Coordinates (Angstroms)
 Number     Number       Type             X           Y           Z
 ---------------------------------------------------------------------
      1          8           0        0.000000    0.000000    0.000000
      2          1           0        0.000000    0.920000   -0.530000
      3          1           0       -0.000000   -0.920000   -0.530000
      4          1           0        0.000000    0.000000    1.060000
 ---------------------------------------------------------------------
 Rotational constants (GHZ):         297.5288385         296.2282044         148.4385485
 Standard basis: 6-31G(d,p) (6D, 7F)
 There are    15 symmetry adapted cartesian basis functions of A1  symmetry.
 There are     2 symmetry adapted cartesian basis functions of A2  symmetry.
 There are     5 symmetry adapted cartesian basis functions of B1  symmetry.
 There are     8 symmetry adapted cartesian basis functions of B2  symmetry.
 There are    15 symmetry adapted basis functions of A1  symmetry.
 There are     2 symmetry adapted basis functions of A2  symmetry.
 There are     5 symmetry adapted basis functions of B1  symmetry.
 There are     8 symmetry adapted basis functions of B2  symmetry.
    30 basis functions,    49 primitive gaussians,    30 cartesian basis functions
     5 alpha electrons        5 beta electrons
       nuclear repulsion energy        12.8319858731 Hartrees.
 NAtoms=    4 NActive=    4 NUniq=    3 SFac= 1.78D+00 NAtFMM=   60 NAOKFM=F Big=F
 Integral buffers will be    131072 words long.
 Raffenetti 1 integral format.
 Two-electron integral symmetry is turned on.
 One-electron integrals computed using PRISM.
 NBasis=    30 RedAO= T EigKep=  2.17D-02  NBF=    15     2     5     8
 NBsUse=    30 1.00D-06 EigRej= -1.00D+00 NBFU=    15     2     5     8
 ExpMin= 1.61D-01 ExpMax= 5.48D+03 ExpMxC= 8.25D+02 IAcc=3 IRadAn=         5 AccDes= 0.00D+00
 Harris functional with IExCor=  205 and IRadAn=       5 diagonalized for initial guess.
 HarFok:  IExCor=  205 AccDes= 0.00D+00 IRadAn=         5 IDoV= 1 UseB2=F ITyADJ=14
 ICtDFT=  3500011 ScaDFX=  1.000000  1.000000  1.000000  1.000000
 FoFCou: FMM=F IPFlag=           0 FMFlag=      100000 FMFlg1=           0
         NFxFlg=           0 DoJE=T BraDBF=F KetDBF=T FulRan=T
         wScrn=  0.000000 ICntrl=       500 IOpCl=  0 I1Cent=   200000004 NGrid=           0
         NMat0=    1 NMatS0=      1 NMatT0=    0 NMatD0=    1 NMtDS0=    0 NMtDT0=    0
 Petite list used in FoFCou.
 Initial guess orbital symmetries:
       Occupied  (A1) (A1) (A1) (B2) (B1)
       Virtual   (A1) (B2) (A1) (A1) (A1) (B2) (B1) (A1) (B2) (A1)
                 (A2) (B1) (B2) (A1) (B2) (A1) (B1) (A2) (B1) (A1)
                 (B2) (A1) (B2) (A1) (A1)
 The electronic state of the initial guess is 1-A1.
 Keep R1 ints in memory in symmetry-blocked form, NReq=941515.
 Requested convergence on RMS density matrix=1.00D-08 within 128 cycles.
 Requested convergence on MAX density matrix=1.00D-06.
 Requested convergence on             energy=1.00D-06.
 No special actions if energy rises.
 SCF Done:  E(RHF) =  -76.2829514594     A.U. after    8 cycles
            NFock=  8  Conv=0.70D-08     -V/T= 2.0092

 **********************************************************************

            Population analysis using the SCF Density.

 **********************************************************************

 Orbital symmetries:
       Occupied  (A1) (A1) (A1) (B2) (B1)
       Virtual   (A1) (B2) (A1) (A1) (A1) (B2) (B1) (A1) (B2) (A1)
                 (A2) (B1) (B2) (A1) (B2) (A1) (B1) (A2) (B1) (A1)
                 (B2) (A1) (B2) (A1) (A1)
 The electronic state is 1-A1.
 Alpha  occ. eigenvalues --  -20.98946  -1.72100  -1.07198  -1.07179  -0.89756
 Alpha virt. eigenvalues --   -0.13991  -0.01674  -0.01629   0.61388   0.65291
 Alpha virt. eigenvalues --    0.65320   0.79001   0.90988   0.91023   1.06676
 Alpha virt. eigenvalues --    1.39335   1.39375   1.93487   2.02662   2.02695
 Alpha virt. eigenvalues --    2.03044   2.28206   2.56470   2.56525   2.67907
 Alpha virt. eigenvalues --    2.68174   3.15260   3.40240   3.40401   3.97645
          Condensed to atoms (all electrons):
               1          2          3          4
     1  O    7.779267   0.274074   0.274074   0.274661
     2  H    0.274074   0.208202  -0.008298  -0.008341
     3  H    0.274074  -0.008298   0.208202  -0.008341
     4  H    0.274661  -0.008341  -0.008341   0.208672
 Mulliken charges:
               1
     1  O   -0.602075
     2  H    0.534364
     3  H    0.534364
     4  H    0.533348
 Sum of Mulliken charges =   1.00000
 Mulliken charges with hydrogens summed into heavy atoms:
               1
     1  O    1.000000
 Electronic spatial extent (au):  <R**2>=             19.2065
 Charge=              1.0000 electrons
 Dipole moment (field-independent basis, Debye):
    X=             -0.0000    Y=              0.0000    Z=             -0.0031  Tot=              0.0031
 Quadrupole moment (field-independent basis, Debye-Ang):
   XX=             -6.8326   YY=             -1.3746   ZZ=             -1.4001
   XY=              0.0000   XZ=              0.0000   YZ=             -0.0000
 Traceless Quadrupole moment (field-independent basis, Debye-Ang):
   XX=             -3.6302   YY=              1.8278   ZZ=              1.8024
   XY=              0.0000   XZ=              0.0000   YZ=             -0.0000
 Octapole moment (field-independent basis, Debye-Ang**2):
  XXX=              0.0000  YYY=              0.0000  ZZZ=              2.7539  XYY=             -0.0000
  XXY=             -0.0000  XXZ=              0.0003  XZZ=             -0.0000  YZZ=              0.0000
  YYZ=             -2.7692  XYZ=             -0.0000
 Hexadecapole moment (field-independent basis, Debye-Ang**3):
 XXXX=             -4.6638 YYYY=             -1.7246 ZZZZ=             -1.7606 XXXY=             -0.0000
 XXXZ=             -0.0000 YYYX=              0.0000 YYYZ=             -0.0000 ZZZX=              0.0000
 ZZZY=             -0.0000 XXYY=             -1.8922 XXZZ=             -1.8904 YYZZ=             -0.5803
 XXYZ=             -0.0000 YYXZ=              0.0000 ZZXY=              0.0000
 N-N= 1.283198587307D+01 E-N=-2.023148022985D+02  KE= 7.558850132614D+01
 Symmetry A1   KE= 6.716925481932D+01
 Symmetry A2   KE= 5.894030393965D-36
 Symmetry B1   KE= 4.787520827262D+00
 Symmetry B2   KE= 3.631725679559D+00
 Calling FoFJK, ICntrl=      2127 FMM=F ISym2X=1 I1Cent= 0 IOpClX= 0 NMat=1 NMatS=1 NMatT=0.
 ***** Axes restored to original set *****
 -------------------------------------------------------------------
 Center     Atomic                   Forces (Hartrees/Bohr)
 Number     Number              X              Y              Z
 -------------------------------------------------------------------
      1        8           0.000000000   -0.000498457   -0.000000000
      2        1          -0.069031567    0.039599223    0.000000000
      3        1           0.069031567    0.039599223    0.000000000
      4        1           0.000000000   -0.078699988   -0.000000000
 -------------------------------------------------------------------
 Cartesian Forces:  Max     0.078699988 RMS     0.039645142

 GradGradGradGradGradGradGradGradGradGradGradGradGradGradGradGradGradGrad
 Berny optimization.
 FormGI is forming the generalized inverse of G from B-inverse, IUseBI=4.
 Internal  Forces:  Max     0.079582876 RMS     0.051907354
 Search for a local minimum.
 Step number   1 out of a maximum of   20
 All quantities printed in internal units (Hartrees-Bohrs-Radians)
 Mixed Optimization -- RFO/linear search
 Second derivative matrix not updated -- first step.
 The second derivative matrix:
                          R1        R2        R3        A1        A2
           R1           0.38293
           R2           0.00000   0.38293
           R3           0.00000   0.00000   0.38523
           A1           0.00000   0.00000   0.00000   0.16000
           A2           0.00000   0.00000   0.00000   0.00000   0.16000
           A3           0.00000   0.00000   0.00000   0.00000   0.00000
           D1           0.00000   0.00000   0.00000   0.00000   0.00000
                          A3        D1
           A3           0.16000
           D1           0.00000   0.00235
 ITU=  0
     Eigenvalues ---    0.00235   0.16000   0.16000   0.38293   0.38293
     Eigenvalues ---    0.38523
 RFO step:  Lambda=-4.40901337D-02 EMin= 2.34697184D-03
 Linear search not attempted -- first point.
 Maximum step size (   0.300) exceeded in Quadratic search.
    -- Step size scaled by   0.934
 Iteration  1 RMS(Cart)=  0.11338938 RMS(Int)=  0.00003945
 Iteration  2 RMS(Cart)=  0.00003296 RMS(Int)=  0.00000000
 Iteration  3 RMS(Cart)=  0.00000000 RMS(Int)=  0.00000000
 ClnCor:  largest displacement from symmetrization is 2.56D-12 for atom     1.
 Variable       Old X    -DE/DX   Delta X   Delta X   Delta X     New X
                                 (Linear)    (Quad)   (Total)
    R1        2.00641  -0.07958   0.00000  -0.17415  -0.17415   1.83226
    R2        2.00641  -0.07958   0.00000  -0.17415  -0.17415   1.83226
    R3        2.00311  -0.07870   0.00000  -0.17130  -0.17130   1.83181
    A1        2.09629  -0.00020   0.00000  -0.00090  -0.00090   2.09539
    A2        2.09345   0.00010   0.00000   0.00045   0.00045   2.09390
    A3        2.09345   0.00010   0.00000   0.00045   0.00045   2.09390
    D1        3.14159   0.00000   0.00000   0.00000   0.00000   3.14159
         Item               Value     Threshold  Converged?
 Maximum Force            0.079583     0.000450     NO 
 RMS     Force            0.051907     0.000300     NO 
 Maximum Displacement     0.171582     0.001800     NO 
 RMS     Displacement     0.113389     0.001200     NO 
 Predicted change in Energy=-2.393439D-02
 GradGradGradGradGradGradGradGradGradGradGradGradGradGradGradGradGradGrad

                          Input orientation:                          
 ---------------------------------------------------------------------
 Center     Atomic      Atomic             Coordinates (Angstroms)
 Number     Number       Type             X           Y           Z
 ---------------------------------------------------------------------
      1          8           0        0.000000   -0.000151   -0.000000
      2          1           0        0.839930   -0.484526    0.000000
      3          1           0       -0.839930   -0.484526   -0.000000
      4          1           0        0.000000    0.969203    0.000000
 ---------------------------------------------------------------------
                    Distance matrix (angstroms):
                    1          2          3          4
     1  O    0.000000
     2  H    0.969588   0.000000
     3  H    0.969588   1.679859   0.000000
     4  H    0.969354   1.678930   1.678930   0.000000
 Stoichiometry    H3O(1+)
 Framework group  C2V[C2(HO),SGV(H2)]
 Deg. of freedom     3
 Full point group                 C2V     NOp   4
 Omega: Change in point group or standard orientation.

 Old FWG=C02V [C2(O1H1),SGV(H2)]
 New FWG=C02V [C2(H1O1),SGV(H2)]
 Largest Abelian subgroup         C2V     NOp   4
 Largest concise Abelian subgroup C2      NOp   2
                         Standard orientation:                         
 ---------------------------------------------------------------------
 Center     Atomic      Atomic             Coordinates (Angstroms)
 Number     Number       Type             X           Y           Z
 ---------------------------------------------------------------------
      1          8           0       -0.000000    0.000000   -0.000055
      2          1           0        0.000000    0.839930   -0.484429
      3          1           0        0.000000   -0.839930   -0.484429
      4          1           0        0.000000   -0.000000    0.969299
 ---------------------------------------------------------------------
 Rotational constants (GHZ):         355.9236983         355.3989776         177.8305722
 Standard basis: 6-31G(d,p) (6D, 7F)
 There are    15 symmetry adapted cartesian basis functions of A1  symmetry.
 There are     2 symmetry adapted cartesian basis functions of A2  symmetry.
 There are     5 symmetry adapted cartesian basis functions of B1  symmetry.
 There are     8 symmetry adapted cartesian basis functions of B2  symmetry.
 There are    15 symmetry adapted basis functions of A1  symmetry.
 There are     2 symmetry adapted basis functions of A2  symmetry.
 There are     5 symmetry adapted basis functions of B1  symmetry.
 There are     8 symmetry adapted basis functions of B2  symmetry.
    30 basis functions,    49 primitive gaussians,    30 cartesian basis functions
     5 alpha electrons        5 beta electrons
       nuclear repulsion energy        14.0450521227 Hartrees.
 NAtoms=    4 NActive=    4 NUniq=    3 SFac= 1.78D+00 NAtFMM=   60 NAOKFM=F Big=F
 Integral buffers will be    131072 words long.
 Raffenetti 1 integral format.
 Two-electron integral symmetry is turned on.
 One-electron integrals computed using PRISM.
 NBasis=    30 RedAO= T EigKep=  1.87D-02  NBF=    15     2     5     8
 NBsUse=    30 1.00D-06 EigRej= -1.00D+00 NBFU=    15     2     5     8
 Initial guess from the checkpoint file:  "/scratch-data/g16-scratch/Gau-253989.chk"
 B after Tr=     0.000000   -0.000000    0.000000
         Rot=    1.000000    0.000000   -0.000000   -0.000000 Ang=   0.00 deg.
 Initial guess orbital symmetries:
       Occupied  (A1) (A1) (A1) (B2) (B1)
       Virtual   (A1) (B2) (A1) (A1) (A1) (B2) (B1) (A1) (B2) (A1)
                 (A2) (B1) (B2) (A1) (B2) (A1) (B1) (A2) (B1) (A1)
                 (B2) (A1) (B2) (A1) (A1)
 ExpMin= 1.61D-01 ExpMax= 5.48D+03 ExpMxC= 8.25D+02 IAcc=3 IRadAn=         5 AccDes= 0.00D+00
 Harris functional with IExCor=  205 and IRadAn=       5 diagonalized for initial guess.
 HarFok:  IExCor=  205 AccDes= 0.00D+00 IRadAn=         5 IDoV= 1 UseB2=F ITyADJ=14
 ICtDFT=  3500011 ScaDFX=  1.000000  1.000000  1.000000  1.000000
 FoFCou: FMM=F IPFlag=           0 FMFlag=      100000 FMFlg1=           0
         NFxFlg=           0 DoJE=T BraDBF=F KetDBF=T FulRan=T
         wScrn=  0.000000 ICntrl=       500 IOpCl=  0 I1Cent=   200000004 NGrid=           0
         NMat0=    1 NMatS0=      1 NMatT0=    0 NMatD0=    1 NMtDS0=    0 NMtDT0=    0
 Petite list used in FoFCou.
 Keep R1 ints in memory in symmetry-blocked form, NReq=941515.
 Requested convergence on RMS density matrix=1.00D-08 within 128 cycles.
 Requested convergence on MAX density matrix=1.00D-06.
 Requested convergence on             energy=1.00D-06.
 No special actions if energy rises.
 SCF Done:  E(RHF) =  -76.3085175386     A.U. after    9 cycles
            NFock=  9  Conv=0.31D-08     -V/T= 2.0039
 Calling FoFJK, ICntrl=      2127 FMM=F ISym2X=1 I1Cent= 0 IOpClX= 0 NMat=1 NMatS=1 NMatT=0.
 ***** Axes restored to original set *****
 -------------------------------------------------------------------
 Center     Atomic                   Forces (Hartrees/Bohr)
 Number     Number              X              Y              Z
 -------------------------------------------------------------------
      1        8          -0.000000000   -0.000060026    0.000000000
      2        1          -0.010315720    0.005839168   -0.000000000
      3        1           0.010315720    0.005839168   -0.000000000
      4        1          -0.000000000   -0.011618311    0.000000000
 -------------------------------------------------------------------
 Cartesian Forces:  Max     0.011618311 RMS     0.005887902

 GradGradGradGradGradGradGradGradGradGradGradGradGradGradGradGradGradGrad
 Berny optimization.
 Using GEDIIS/GDIIS optimizer.
 FormGI is forming the generalized inverse of G from B-inverse, IUseBI=4.
 Internal  Forces:  Max     0.011853308 RMS     0.007709060
 Search for a local minimum.
 Step number   2 out of a maximum of   20
 All quantities printed in internal units (Hartrees-Bohrs-Radians)
 Mixed Optimization -- RFO/linear search
 Update second derivatives using D2CorX and points    1    2
 DE= -2.56D-02 DEPred=-2.39D-02 R= 1.07D+00
 TightC=F SS=  1.41D+00  RLast= 3.00D-01 DXNew= 5.0454D-01 9.0000D-01
 Trust test= 1.07D+00 RLast= 3.00D-01 DXMaxT set to 5.05D-01
 The second derivative matrix:
                          R1        R2        R3        A1        A2
           R1           0.38491
           R2           0.00197   0.38491
           R3           0.00207   0.00207   0.38740
           A1          -0.00012  -0.00012  -0.00012   0.16000
           A2           0.00006   0.00006   0.00006   0.00000   0.16000
           A3           0.00006   0.00006   0.00006   0.00000  -0.00000
           D1          -0.00000  -0.00000  -0.00000  -0.00000   0.00000
                          A3        D1
           A3           0.16000
           D1           0.00000   0.00235
 ITU=  1  0
 Use linear search instead of GDIIS.
     Eigenvalues ---    0.00235   0.16000   0.16000   0.38293   0.38420
     Eigenvalues ---    0.39008
 RFO step:  Lambda=-9.12667225D-08 EMin= 2.34697184D-03
 Quartic linear search produced a step of  0.12529.
 Iteration  1 RMS(Cart)=  0.01421018 RMS(Int)=  0.00000374
 Iteration  2 RMS(Cart)=  0.00000308 RMS(Int)=  0.00000000
 Iteration  3 RMS(Cart)=  0.00000000 RMS(Int)=  0.00000000
 ClnCor:  largest displacement from symmetrization is 6.51D-11 for atom     1.
 Variable       Old X    -DE/DX   Delta X   Delta X   Delta X     New X
                                 (Linear)    (Quad)   (Total)
    R1        1.83226  -0.01185  -0.02182  -0.00009  -0.02190   1.81035
    R2        1.83226  -0.01185  -0.02182  -0.00009  -0.02190   1.81035
    R3        1.83181  -0.01162  -0.02146   0.00017  -0.02129   1.81052
    A1        2.09539  -0.00012  -0.00011  -0.00056  -0.00067   2.09473
    A2        2.09390   0.00006   0.00006   0.00028   0.00033   2.09423
    A3        2.09390   0.00006   0.00006   0.00028   0.00033   2.09423
    D1        3.14159  -0.00000   0.00000  -0.00000   0.00000   3.14159
         Item               Value     Threshold  Converged?
 Maximum Force            0.011853     0.000450     NO 
 RMS     Force            0.007709     0.000300     NO 
 Maximum Displacement     0.021176     0.001800     NO 
 RMS     Displacement     0.014210     0.001200     NO 
 Predicted change in Energy=-4.913447D-04
 GradGradGradGradGradGradGradGradGradGradGradGradGradGradGradGradGradGrad

                          Input orientation:                          
 ---------------------------------------------------------------------
 Center     Atomic      Atomic             Coordinates (Angstroms)
 Number     Number       Type             X           Y           Z
 ---------------------------------------------------------------------
      1          8           0        0.000000   -0.000092   -0.000000
      2          1           0        0.829728   -0.478953   -0.000000
      3          1           0       -0.829728   -0.478953    0.000000
      4          1           0        0.000000    0.957997    0.000000
 ---------------------------------------------------------------------
                    Distance matrix (angstroms):
                    1          2          3          4
     1  O    0.000000
     2  H    0.957996   0.000000
     3  H    0.957996   1.659457   0.000000
     4  H    0.958088   1.659299   1.659299   0.000000
 Stoichiometry    H3O(1+)
 Framework group  C2V[C2(HO),SGV(H2)]
 Deg. of freedom     3
 Full point group                 C2V     NOp   4
 Largest Abelian subgroup         C2V     NOp   4
 Largest concise Abelian subgroup C2      NOp   2
                         Standard orientation:                         
 ---------------------------------------------------------------------
 Center     Atomic      Atomic             Coordinates (Angstroms)
 Number     Number       Type             X           Y           Z
 ---------------------------------------------------------------------
      1          8           0        0.000000    0.000000   -0.000033
      2          1           0        0.000000    0.829728   -0.478894
      3          1           0        0.000000   -0.829728   -0.478894
      4          1           0       -0.000000   -0.000000    0.958055
 ---------------------------------------------------------------------
 Rotational constants (GHZ):         364.2842976         364.1917157         182.1190004
 Standard basis: 6-31G(d,p) (6D, 7F)
 There are    15 symmetry adapted cartesian basis functions of A1  symmetry.
 There are     2 symmetry adapted cartesian basis functions of A2  symmetry.
 There are     5 symmetry adapted cartesian basis functions of B1  symmetry.
 There are     8 symmetry adapted cartesian basis functions of B2  symmetry.
 There are    15 symmetry adapted basis functions of A1  symmetry.
 There are     2 symmetry adapted basis functions of A2  symmetry.
 There are     5 symmetry adapted basis functions of B1  symmetry.
 There are     8 symmetry adapted basis functions of B2  symmetry.
    30 basis functions,    49 primitive gaussians,    30 cartesian basis functions
     5 alpha electrons        5 beta electrons
       nuclear repulsion energy        14.2133929290 Hartrees.
 NAtoms=    4 NActive=    4 NUniq=    3 SFac= 1.78D+00 NAtFMM=   60 NAOKFM=F Big=F
 Integral buffers will be    131072 words long.
 Raffenetti 1 integral format.
 Two-electron integral symmetry is turned on.
 One-electron integrals computed using PRISM.
 NBasis=    30 RedAO= T EigKep=  1.83D-02  NBF=    15     2     5     8
 NBsUse=    30 1.00D-06 EigRej= -1.00D+00 NBFU=    15     2     5     8
 Initial guess from the checkpoint file:  "/scratch-data/g16-scratch/Gau-253989.chk"
 B after Tr=    -0.000000    0.000000    0.000000
         Rot=    1.000000   -0.000000    0.000000    0.000000 Ang=   0.00 deg.
 Initial guess orbital symmetries:
       Occupied  (A1) (A1) (B2) (A1) (B1)
       Virtual   (A1) (B2) (A1) (A1) (A1) (B2) (B1) (A1) (B2) (A1)
                 (A2) (B1) (B2) (A1) (B2) (A1) (B1) (B1) (A2) (A1)
                 (B2) (A1) (B2) (A1) (A1)
 ExpMin= 1.61D-01 ExpMax= 5.48D+03 ExpMxC= 8.25D+02 IAcc=3 IRadAn=         5 AccDes= 0.00D+00
 Harris functional with IExCor=  205 and IRadAn=       5 diagonalized for initial guess.
 HarFok:  IExCor=  205 AccDes= 0.00D+00 IRadAn=         5 IDoV= 1 UseB2=F ITyADJ=14
 ICtDFT=  3500011 ScaDFX=  1.000000  1.000000  1.000000  1.000000
 FoFCou: FMM=F IPFlag=           0 FMFlag=      100000 FMFlg1=           0
         NFxFlg=           0 DoJE=T BraDBF=F KetDBF=T FulRan=T
         wScrn=  0.000000 ICntrl=       500 IOpCl=  0 I1Cent=   200000004 NGrid=           0
         NMat0=    1 NMatS0=      1 NMatT0=    0 NMatD0=    1 NMtDS0=    0 NMtDT0=    0
 Petite list used in FoFCou.
 Keep R1 ints in memory in symmetry-blocked form, NReq=941515.
 Requested convergence on RMS density matrix=1.00D-08 within 128 cycles.
 Requested convergence on MAX density matrix=1.00D-06.
 Requested convergence on             energy=1.00D-06.
 No special actions if energy rises.
 SCF Done:  E(RHF) =  -76.3089001123     A.U. after    7 cycles
            NFock=  7  Conv=0.63D-08     -V/T= 2.0030
 Calling FoFJK, ICntrl=      2127 FMM=F ISym2X=1 I1Cent= 0 IOpClX= 0 NMat=1 NMatS=1 NMatT=0.
 ***** Axes restored to original set *****
 -------------------------------------------------------------------
 Center     Atomic                   Forces (Hartrees/Bohr)
 Number     Number              X              Y              Z
 -------------------------------------------------------------------
      1        8           0.000000000    0.000153304    0.000000000
      2        1           0.000169618   -0.000134759   -0.000000000
      3        1          -0.000169618   -0.000134759   -0.000000000
      4        1           0.000000000    0.000116214    0.000000000
 -------------------------------------------------------------------
 Cartesian Forces:  Max     0.000169618 RMS     0.000104430

 GradGradGradGradGradGradGradGradGradGradGradGradGradGradGradGradGradGrad
 Berny optimization.
 Using GEDIIS/GDIIS optimizer.
 FormGI is forming the generalized inverse of G from B-inverse, IUseBI=4.
 Internal  Forces:  Max     0.000214268 RMS     0.000123955
 Search for a local minimum.
 Step number   3 out of a maximum of   20
 All quantities printed in internal units (Hartrees-Bohrs-Radians)
 Mixed Optimization -- En-DIIS/RFO-DIIS
 Update second derivatives using D2CorX and points    1    2    3
 DE= -3.83D-04 DEPred=-4.91D-04 R= 7.79D-01
 TightC=F SS=  1.41D+00  RLast= 3.76D-02 DXNew= 8.4853D-01 1.1279D-01
 Trust test= 7.79D-01 RLast= 3.76D-02 DXMaxT set to 5.05D-01
 The second derivative matrix:
                          R1        R2        R3        A1        A2
           R1           0.44021
           R2           0.05728   0.44021
           R3           0.05500   0.05500   0.43804
           A1          -0.00045  -0.00045  -0.00045   0.15999
           A2           0.00023   0.00023   0.00022   0.00000   0.16000
           A3           0.00023   0.00023   0.00022   0.00000  -0.00000
           D1          -0.00000  -0.00000  -0.00000   0.00000  -0.00000
                          A3        D1
           A3           0.16000
           D1          -0.00000   0.00235
 ITU=  1  1  0
 Use linear search instead of GDIIS.
     Eigenvalues ---    0.00235   0.15998   0.16000   0.38293   0.38449
     Eigenvalues ---    0.55104
 RFO step:  Lambda=-2.99065175D-08 EMin= 2.34697184D-03
 Quartic linear search produced a step of -0.01461.
 Iteration  1 RMS(Cart)=  0.00021982 RMS(Int)=  0.00000003
 Iteration  2 RMS(Cart)=  0.00000002 RMS(Int)=  0.00000000
 ClnCor:  largest displacement from symmetrization is 5.15D-11 for atom     1.
 Variable       Old X    -DE/DX   Delta X   Delta X   Delta X     New X
                                 (Linear)    (Quad)   (Total)
    R1        1.81035   0.00021   0.00032   0.00008   0.00040   1.81075
    R2        1.81035   0.00021   0.00032   0.00008   0.00040   1.81075
    R3        1.81052   0.00012   0.00031  -0.00016   0.00015   1.81067
    A1        2.09473  -0.00004   0.00001  -0.00025  -0.00024   2.09449
    A2        2.09423   0.00002  -0.00000   0.00012   0.00012   2.09435
    A3        2.09423   0.00002  -0.00000   0.00012   0.00012   2.09435
    D1        3.14159  -0.00000   0.00000  -0.00000   0.00000   3.14159
         Item               Value     Threshold  Converged?
 Maximum Force            0.000214     0.000450     YES
 RMS     Force            0.000124     0.000300     YES
 Maximum Displacement     0.000306     0.001800     YES
 RMS     Displacement     0.000220     0.001200     YES
 Predicted change in Energy=-1.045233D-07
 Optimization completed.
    -- Stationary point found.
                           ----------------------------
                           !   Optimized Parameters   !
                           ! (Angstroms and Degrees)  !
 --------------------------                            --------------------------
 ! Name  Definition              Value          Derivative Info.                !
 --------------------------------------------------------------------------------
 ! R1    R(1,2)                  0.958          -DE/DX =    0.0002              !
 ! R2    R(1,3)                  0.958          -DE/DX =    0.0002              !
 ! R3    R(1,4)                  0.9581         -DE/DX =    0.0001              !
 ! A1    A(2,1,3)              120.019          -DE/DX =    0.0                 !
 ! A2    A(2,1,4)              119.9905         -DE/DX =    0.0                 !
 ! A3    A(3,1,4)              119.9905         -DE/DX =    0.0                 !
 ! D1    D(2,1,4,3)            180.0            -DE/DX =    0.0                 !
 --------------------------------------------------------------------------------
 GradGradGradGradGradGradGradGradGradGradGradGradGradGradGradGradGradGrad

                          Input orientation:                          
 ---------------------------------------------------------------------
 Center     Atomic      Atomic             Coordinates (Angstroms)
 Number     Number       Type             X           Y           Z
 ---------------------------------------------------------------------
      1          8           0       -0.000000   -0.000092   -0.000000
      2          1           0        0.829728   -0.478953   -0.000000
      3          1           0       -0.829728   -0.478953    0.000000
      4          1           0        0.000000    0.957997    0.000000
 ---------------------------------------------------------------------
                    Distance matrix (angstroms):
                    1          2          3          4
     1  O    0.000000
     2  H    0.957996   0.000000
     3  H    0.957996   1.659457   0.000000
     4  H    0.958088   1.659299   1.659299   0.000000
 Stoichiometry    H3O(1+)
 Framework group  C2V[C2(HO),SGV(H2)]
 Deg. of freedom     3
 Full point group                 C2V     NOp   4
 Largest Abelian subgroup         C2V     NOp   4
 Largest concise Abelian subgroup C2      NOp   2
                         Standard orientation:                         
 ---------------------------------------------------------------------
 Center     Atomic      Atomic             Coordinates (Angstroms)
 Number     Number       Type             X           Y           Z
 ---------------------------------------------------------------------
      1          8           0        0.000000    0.000000   -0.000033
      2          1           0        0.000000    0.829728   -0.478894
      3          1           0        0.000000   -0.829728   -0.478894
      4          1           0       -0.000000   -0.000000    0.958055
 ---------------------------------------------------------------------
 Rotational constants (GHZ):         364.2842976         364.1917157         182.1190004

 **********************************************************************

            Population analysis using the SCF Density.

 **********************************************************************

 Orbital symmetries:
       Occupied  (A1) (A1) (B2) (A1) (B1)
       Virtual   (A1) (A1) (B2) (A1) (B2) (A1) (B1) (A1) (B2) (A1)
                 (A2) (B1) (B2) (A1) (B2) (A1) (B1) (B1) (A2) (A1)
                 (B2) (A1) (B2) (A1) (A1)
 The electronic state is 1-A1.
 Alpha  occ. eigenvalues --  -21.00289  -1.80001  -1.15481  -1.15471  -0.93440
 Alpha virt. eigenvalues --   -0.10671   0.00942   0.00946   0.66530   0.66549
 Alpha virt. eigenvalues --    0.66678   0.76775   0.89750   0.89753   1.08758
 Alpha virt. eigenvalues --    1.37389   1.37395   1.97458   2.13683   2.16447
 Alpha virt. eigenvalues --    2.16454   2.36391   2.68252   2.68287   2.90671
 Alpha virt. eigenvalues --    2.90694   3.35093   3.54040   3.54056   4.13377
          Condensed to atoms (all electrons):
               1          2          3          4
     1  O    7.519904   0.311266   0.311266   0.311239
     2  H    0.311266   0.221338  -0.008574  -0.008578
     3  H    0.311266  -0.008574   0.221338  -0.008578
     4  H    0.311239  -0.008578  -0.008578   0.221341
 Mulliken charges:
               1
     1  O   -0.453675
     2  H    0.484549
     3  H    0.484549
     4  H    0.484577
 Sum of Mulliken charges =   1.00000
 Mulliken charges with hydrogens summed into heavy atoms:
               1
     1  O    1.000000
 Electronic spatial extent (au):  <R**2>=             17.7760
 Charge=              1.0000 electrons
 Dipole moment (field-independent basis, Debye):
    X=              0.0000    Y=             -0.0000    Z=              0.0007  Tot=              0.0007
 Quadrupole moment (field-independent basis, Debye-Ang):
   XX=             -6.5158   YY=             -2.0835   ZZ=             -2.0847
   XY=             -0.0000   XZ=             -0.0000   YZ=             -0.0000
 Traceless Quadrupole moment (field-independent basis, Debye-Ang):
   XX=             -2.9545   YY=              1.4778   ZZ=              1.4766
   XY=             -0.0000   XZ=             -0.0000   YZ=             -0.0000
 Octapole moment (field-independent basis, Debye-Ang**2):
  XXX=             -0.0000  YYY=              0.0000  ZZZ=              1.9495  XYY=              0.0000
  XXY=              0.0000  XXZ=              0.0001  XZZ=              0.0000  YZZ=             -0.0000
  YYZ=             -1.9483  XYZ=              0.0000
 Hexadecapole moment (field-independent basis, Debye-Ang**3):
 XXXX=             -4.3045 YYYY=             -2.3824 ZZZZ=             -2.3832 XXXY=              0.0000
 XXXZ=              0.0000 YYYX=             -0.0000 YYYZ=             -0.0000 ZZZX=              0.0000
 ZZZY=             -0.0000 XXYY=             -1.6520 XXZZ=             -1.6520 YYZZ=             -0.7948
 XXYZ=             -0.0000 YYXZ=             -0.0000 ZZXY=             -0.0000
 N-N= 1.421339292899D+01 E-N=-2.050308125034D+02  KE= 7.607985990260D+01
 Symmetry A1   KE= 6.740961755578D+01
 Symmetry A2   KE= 2.465977809851D-35
 Symmetry B1   KE= 4.824150835513D+00
 Symmetry B2   KE= 3.846091511308D+00
 1\1\GINC-SUGARCUBE\FOpt\RHF\6-31G(d,p)\H3O1(1+)\JUPYTER-BRANDONC\08-Ma
 r-2023\0\\# HF 6-31G(d,p) # opt freq scf=tight\\F Atom Calculation\\1,
 1\O,0.,-0.0000916265,0.\H,0.8297284835,-0.4789525368,0.\H,-0.829728483
 5,-0.4789525368,0.\H,0.,0.9579967001,0.\\Version=ES64L-G16RevB.01\Stat
 e=1-A1\HF=-76.3089001\RMSD=6.267e-09\RMSF=1.044e-04\Dipole=0.,0.000259
 ,0.\Quadrupole=1.0987219,1.097841,-2.1965629,0.,0.,0.\PG=C02V [C2(H1O1
 ),SGV(H2)]\\@


 ...THOSE SCIENCES ARE VAIN AND FULL OF ERRORS WHICH 
 ARE NOT BORN FROM EXPERIMENT, THE MOTHER OF CERTAINTY...

                          -- LEONARDO DA VINCI, 1452-1519
 Job cpu time:       0 days  0 hours  0 minutes  4.3 seconds.
 Elapsed time:       0 days  0 hours  0 minutes  2.2 seconds.
 File lengths (MBytes):  RWF=      6 Int=      0 D2E=      0 Chk=      1 Scr=      1
 Normal termination of Gaussian 16 at Wed Mar  8 17:28:50 2023.
 Link1:  Proceeding to internal job step number  2.
 -------------------------------------------------------------------
 #N Geom=AllCheck Guess=TCheck SCRF=Check GenChk RHF/6-31G(d,p) Freq
 -------------------------------------------------------------------
 1/10=4,29=7,30=1,38=1,40=1/1,3;
 2/12=2,40=1/2;
 3/5=1,6=6,7=101,11=1,14=-4,25=1,30=1,70=2,71=2,116=1,140=1/1,2,3;
 4/5=101/1;
 5/5=2,32=2,38=6,98=1/2;
 8/6=4,10=90,11=11/1;
 10/13=10,15=4/2;
 11/6=3,8=1,9=11,15=111,16=1/1,2,10;
 10/6=1/2;
 6/7=2,8=2,9=2,10=2,28=1/1;
 7/8=1,10=1,25=1/1,2,3,16;
 1/10=4,30=1/3;
 99//99;
 Structure from the checkpoint file:  "/scratch-data/g16-scratch/Gau-253989.chk"
 ------------------
 F Atom Calculation
 ------------------
 Charge =  1 Multiplicity = 1
 Redundant internal coordinates found in file.  (old form).
 O,0,0.,-0.0000916265,0.
 H,0,0.8297284835,-0.4789525368,0.
 H,0,-0.8297284835,-0.4789525368,0.
 H,0,0.,0.9579967001,0.
 Recover connectivity data from disk.

 GradGradGradGradGradGradGradGradGradGradGradGradGradGradGradGradGradGrad
 Berny optimization.
 Initialization pass.
                           ----------------------------
                           !    Initial Parameters    !
                           ! (Angstroms and Degrees)  !
 --------------------------                            --------------------------
 ! Name  Definition              Value          Derivative Info.                !
 --------------------------------------------------------------------------------
 ! R1    R(1,2)                  0.958          calculate D2E/DX2 analytically  !
 ! R2    R(1,3)                  0.958          calculate D2E/DX2 analytically  !
 ! R3    R(1,4)                  0.9581         calculate D2E/DX2 analytically  !
 ! A1    A(2,1,3)              120.019          calculate D2E/DX2 analytically  !
 ! A2    A(2,1,4)              119.9905         calculate D2E/DX2 analytically  !
 ! A3    A(3,1,4)              119.9905         calculate D2E/DX2 analytically  !
 ! D1    D(2,1,4,3)            180.0            calculate D2E/DX2 analytically  !
 --------------------------------------------------------------------------------
 Trust Radius=3.00D-01 FncErr=1.00D-07 GrdErr=1.00D-07 EigMax=2.50D+02 EigMin=1.00D-04
 Number of steps in this run=      2 maximum allowed number of steps=      2.
 GradGradGradGradGradGradGradGradGradGradGradGradGradGradGradGradGradGrad

                          Input orientation:                          
 ---------------------------------------------------------------------
 Center     Atomic      Atomic             Coordinates (Angstroms)
 Number     Number       Type             X           Y           Z
 ---------------------------------------------------------------------
      1          8           0       -0.000000   -0.000092    0.000000
      2          1           0        0.829728   -0.478953   -0.000000
      3          1           0       -0.829728   -0.478953    0.000000
      4          1           0        0.000000    0.957997    0.000000
 ---------------------------------------------------------------------
                    Distance matrix (angstroms):
                    1          2          3          4
     1  O    0.000000
     2  H    0.957996   0.000000
     3  H    0.957996   1.659457   0.000000
     4  H    0.958088   1.659299   1.659299   0.000000
 Stoichiometry    H3O(1+)
 Framework group  C2V[C2(HO),SGV(H2)]
 Deg. of freedom     3
 Full point group                 C2V     NOp   4
 Largest Abelian subgroup         C2V     NOp   4
 Largest concise Abelian subgroup C2      NOp   2
                         Standard orientation:                         
 ---------------------------------------------------------------------
 Center     Atomic      Atomic             Coordinates (Angstroms)
 Number     Number       Type             X           Y           Z
 ---------------------------------------------------------------------
      1          8           0        0.000000    0.000000   -0.000033
      2          1           0        0.000000    0.829728   -0.478894
      3          1           0        0.000000   -0.829728   -0.478894
      4          1           0       -0.000000   -0.000000    0.958055
 ---------------------------------------------------------------------
 Rotational constants (GHZ):         364.2842976         364.1917157         182.1190004
 Standard basis: 6-31G(d,p) (6D, 7F)
 There are    15 symmetry adapted cartesian basis functions of A1  symmetry.
 There are     2 symmetry adapted cartesian basis functions of A2  symmetry.
 There are     5 symmetry adapted cartesian basis functions of B1  symmetry.
 There are     8 symmetry adapted cartesian basis functions of B2  symmetry.
 There are    15 symmetry adapted basis functions of A1  symmetry.
 There are     2 symmetry adapted basis functions of A2  symmetry.
 There are     5 symmetry adapted basis functions of B1  symmetry.
 There are     8 symmetry adapted basis functions of B2  symmetry.
    30 basis functions,    49 primitive gaussians,    30 cartesian basis functions
     5 alpha electrons        5 beta electrons
       nuclear repulsion energy        14.2133929290 Hartrees.
 NAtoms=    4 NActive=    4 NUniq=    3 SFac= 1.78D+00 NAtFMM=   60 NAOKFM=F Big=F
 Integral buffers will be    131072 words long.
 Raffenetti 1 integral format.
 Two-electron integral symmetry is turned on.
 One-electron integrals computed using PRISM.
 NBasis=    30 RedAO= T EigKep=  1.83D-02  NBF=    15     2     5     8
 NBsUse=    30 1.00D-06 EigRej= -1.00D+00 NBFU=    15     2     5     8
 Initial guess from the checkpoint file:  "/scratch-data/g16-scratch/Gau-253989.chk"
 B after Tr=     0.000000   -0.000000   -0.000000
         Rot=    1.000000    0.000000    0.000000    0.000000 Ang=   0.00 deg.
 Initial guess orbital symmetries:
       Occupied  (A1) (A1) (B2) (A1) (B1)
       Virtual   (A1) (A1) (B2) (A1) (B2) (A1) (B1) (A1) (B2) (A1)
                 (A2) (B1) (B2) (A1) (B2) (A1) (B1) (B1) (A2) (A1)
                 (B2) (A1) (B2) (A1) (A1)
 Keep R1 ints in memory in symmetry-blocked form, NReq=941515.
 Requested convergence on RMS density matrix=1.00D-08 within 128 cycles.
 Requested convergence on MAX density matrix=1.00D-06.
 Requested convergence on             energy=1.00D-06.
 No special actions if energy rises.
 SCF Done:  E(RHF) =  -76.3089001123     A.U. after    1 cycles
            NFock=  1  Conv=0.62D-09     -V/T= 2.0030
 Range of M.O.s used for correlation:     1    30
 NBasis=    30 NAE=     5 NBE=     5 NFC=     0 NFV=     0
 NROrb=     30 NOA=     5 NOB=     5 NVA=    25 NVB=    25
          Differentiating once with respect to electric field.
                with respect to dipole field.
          Electric field/nuclear overlap derivatives assumed to be zero.
 Keep R1 ints in memory in symmetry-blocked form, NReq=942065.
          There are     3 degrees of freedom in the 1st order CPHF.  IDoFFX=0 NUNeed=     3.
      3 vectors produced by pass  0 Test12= 4.17D-15 3.33D-08 XBig12= 7.65D-01 5.43D-01.
 AX will form     3 AO Fock derivatives at one time.
      3 vectors produced by pass  1 Test12= 4.17D-15 3.33D-08 XBig12= 2.22D-02 1.05D-01.
      3 vectors produced by pass  2 Test12= 4.17D-15 3.33D-08 XBig12= 1.76D-04 6.07D-03.
      3 vectors produced by pass  3 Test12= 4.17D-15 3.33D-08 XBig12= 9.92D-07 4.72D-04.
      3 vectors produced by pass  4 Test12= 4.17D-15 3.33D-08 XBig12= 1.39D-08 5.85D-05.
      3 vectors produced by pass  5 Test12= 4.17D-15 3.33D-08 XBig12= 2.96D-10 8.44D-06.
      3 vectors produced by pass  6 Test12= 4.17D-15 3.33D-08 XBig12= 1.50D-11 1.43D-06.
      1 vectors produced by pass  7 Test12= 4.17D-15 3.33D-08 XBig12= 4.62D-14 9.47D-08.
 InvSVY:  IOpt=1 It=  1 EMax= 1.11D-16
 Solved reduced A of dimension    22 with     3 vectors.
 End of Minotr F.D. properties file   721 does not exist.
 End of Minotr F.D. properties file   722 does not exist.
 End of Minotr F.D. properties file   788 does not exist.
 Symmetrizing basis deriv contribution to polar:
 IMax=3 JMax=2 DiffMx= 0.00D+00
 G2DrvN: will do     5 centers at a time, making    1 passes.
 PxScal for G2LodP:  IOpCl= 0 ISclPx=1 IMOff=     1 NMtTot=     4 NTT=     465 ScalPx= 1.00D+00
 Calling FoFCou, ICntrl=  3107 FMM=F I1Cent=   0 AccDes= 0.00D+00.
 End of G2Drv F.D. properties file   721 does not exist.
 End of G2Drv F.D. properties file   722 does not exist.
 End of G2Drv F.D. properties file   788 does not exist.
          IDoAtm=1111
          Differentiating once with respect to electric field.
                with respect to dipole field.
          Differentiating once with respect to nuclear coordinates.
 Keep R1 ints in memory in symmetry-blocked form, NReq=942157.
          There are    12 degrees of freedom in the 1st order CPHF.  IDoFFX=4 NUNeed=    12.
 Will reuse    3 saved solutions.
      9 vectors produced by pass  0 Test12= 1.04D-15 8.33D-09 XBig12= 2.69D-02 8.69D-02.
 AX will form     9 AO Fock derivatives at one time.
      9 vectors produced by pass  1 Test12= 1.04D-15 8.33D-09 XBig12= 6.18D-04 1.48D-02.
      9 vectors produced by pass  2 Test12= 1.04D-15 8.33D-09 XBig12= 5.58D-06 1.45D-03.
      9 vectors produced by pass  3 Test12= 1.04D-15 8.33D-09 XBig12= 8.07D-08 1.68D-04.
      9 vectors produced by pass  4 Test12= 1.04D-15 8.33D-09 XBig12= 4.24D-10 1.11D-05.
      8 vectors produced by pass  5 Test12= 1.04D-15 8.33D-09 XBig12= 7.78D-13 4.37D-07.
      4 vectors produced by pass  6 Test12= 1.04D-15 8.33D-09 XBig12= 4.73D-15 3.46D-08.
 InvSVY:  IOpt=1 It=  1 EMax= 8.88D-16
 Solved reduced A of dimension    57 with     9 vectors.
 Isotropic polarizability for W=    0.000000        4.27 Bohr**3.
 End of Minotr F.D. properties file   721 does not exist.
 End of Minotr F.D. properties file   722 does not exist.
 End of Minotr F.D. properties file   788 does not exist.

 **********************************************************************

            Population analysis using the SCF Density.

 **********************************************************************

 Orbital symmetries:
       Occupied  (A1) (A1) (B2) (A1) (B1)
       Virtual   (A1) (A1) (B2) (A1) (B2) (A1) (B1) (A1) (B2) (A1)
                 (A2) (B1) (B2) (A1) (B2) (A1) (B1) (B1) (A2) (A1)
                 (B2) (A1) (B2) (A1) (A1)
 The electronic state is 1-A1.
 Alpha  occ. eigenvalues --  -21.00289  -1.80001  -1.15481  -1.15471  -0.93440
 Alpha virt. eigenvalues --   -0.10671   0.00942   0.00946   0.66530   0.66549
 Alpha virt. eigenvalues --    0.66678   0.76775   0.89750   0.89753   1.08758
 Alpha virt. eigenvalues --    1.37389   1.37395   1.97458   2.13683   2.16447
 Alpha virt. eigenvalues --    2.16454   2.36391   2.68252   2.68287   2.90671
 Alpha virt. eigenvalues --    2.90694   3.35093   3.54040   3.54056   4.13377
          Condensed to atoms (all electrons):
               1          2          3          4
     1  O    7.519904   0.311266   0.311266   0.311239
     2  H    0.311266   0.221338  -0.008574  -0.008578
     3  H    0.311266  -0.008574   0.221338  -0.008578
     4  H    0.311239  -0.008578  -0.008578   0.221341
 Mulliken charges:
               1
     1  O   -0.453675
     2  H    0.484549
     3  H    0.484549
     4  H    0.484577
 Sum of Mulliken charges =   1.00000
 Mulliken charges with hydrogens summed into heavy atoms:
               1
     1  O    1.000000
 APT charges:
               1
     1  O   -0.608807
     2  H    0.536274
     3  H    0.536274
     4  H    0.536259
 Sum of APT charges =   1.00000
 APT charges with hydrogens summed into heavy atoms:
               1
     1  O    1.000000
 Electronic spatial extent (au):  <R**2>=             17.7760
 Charge=              1.0000 electrons
 Dipole moment (field-independent basis, Debye):
    X=              0.0000    Y=             -0.0000    Z=              0.0007  Tot=              0.0007
 Quadrupole moment (field-independent basis, Debye-Ang):
   XX=             -6.5158   YY=             -2.0835   ZZ=             -2.0847
   XY=             -0.0000   XZ=             -0.0000   YZ=             -0.0000
 Traceless Quadrupole moment (field-independent basis, Debye-Ang):
   XX=             -2.9545   YY=              1.4778   ZZ=              1.4766
   XY=             -0.0000   XZ=             -0.0000   YZ=             -0.0000
 Octapole moment (field-independent basis, Debye-Ang**2):
  XXX=             -0.0000  YYY=              0.0000  ZZZ=              1.9495  XYY=              0.0000
  XXY=             -0.0000  XXZ=              0.0001  XZZ=              0.0000  YZZ=             -0.0000
  YYZ=             -1.9483  XYZ=              0.0000
 Hexadecapole moment (field-independent basis, Debye-Ang**3):
 XXXX=             -4.3045 YYYY=             -2.3824 ZZZZ=             -2.3832 XXXY=              0.0000
 XXXZ=              0.0000 YYYX=             -0.0000 YYYZ=             -0.0000 ZZZX=              0.0000
 ZZZY=             -0.0000 XXYY=             -1.6520 XXZZ=             -1.6520 YYZZ=             -0.7948
 XXYZ=              0.0000 YYXZ=             -0.0000 ZZXY=             -0.0000
 N-N= 1.421339292899D+01 E-N=-2.050308123411D+02  KE= 7.607985980283D+01
 Symmetry A1   KE= 6.740961749196D+01
 Symmetry A2   KE= 8.581516937685D-36
 Symmetry B1   KE= 4.824150805756D+00
 Symmetry B2   KE= 3.846091505110D+00
  Exact polarizability:   2.705  -0.000   5.048  -0.000  -0.000   5.048
 Approx polarizability:   2.434  -0.000   4.325  -0.000   0.000   4.324
 Calling FoFJK, ICntrl=    100127 FMM=F ISym2X=1 I1Cent= 0 IOpClX= 0 NMat=1 NMatS=1 NMatT=0.
 Full mass-weighted force constant matrix:
 Low frequencies --- -581.2366  -53.2580  -51.2824  -49.1858    0.0009    0.0016
 Low frequencies ---    0.0018 1745.7047 1746.2238
 ******    1 imaginary frequencies (negative Signs) ****** 
 Diagonal vibrational polarizability:
       60.9049758       2.6548181       2.6558025
 Diagonal vibrational hyperpolarizability:
        0.0000000      -0.0000000       0.1408814
 Harmonic frequencies (cm**-1), IR intensities (KM/Mole), Raman scattering
 activities (A**4/AMU), depolarization ratios for plane and unpolarized
 incident light, reduced masses (AMU), force constants (mDyne/A),
 and normal coordinates:
                      1                      2                      3
                     B1                     A1                     B2
 Frequencies --   -581.2332              1745.7047              1746.2238
 Red. masses --      1.1842                 1.0787                 1.0787
 Frc consts  --      0.2357                 1.9369                 1.9380
 IR Inten    --    764.5757               164.3988               164.3846
 Raman Activ --      0.0000                 1.1898                 1.1921
 Depolar (P) --      0.7500                 0.7500                 0.7500
 Depolar (U) --      0.8571                 0.8571                 0.8571
  Atom  AN      X      Y      Z        X      Y      Z        X      Y      Z
     1   8    -0.11   0.00   0.00     0.00   0.00  -0.07     0.00  -0.07  -0.00
     2   1     0.57   0.00   0.00    -0.00   0.39   0.59    -0.00   0.14   0.39
     3   1     0.57  -0.00  -0.00    -0.00  -0.39   0.59    -0.00   0.14  -0.39
     4   1     0.57   0.00   0.00     0.00  -0.00  -0.08    -0.00   0.81  -0.00
                      4                      5                      6
                     A1                     A1                     B2
 Frequencies --   3876.0466              4047.4261              4048.3929
 Red. masses --      1.0078                 1.0993                 1.0993
 Frc consts  --      8.9210                10.6104                10.6157
 IR Inten    --      0.0083               732.9369               733.2986
 Raman Activ --     36.5307                 8.4320                 8.4223
 Depolar (P) --      0.1100                 0.7500                 0.7500
 Depolar (U) --      0.1982                 0.8571                 0.8571
  Atom  AN      X      Y      Z        X      Y      Z        X      Y      Z
     1   8     0.00  -0.00  -0.00    -0.00  -0.00  -0.08    -0.00  -0.08   0.00
     2   1    -0.00   0.50  -0.29     0.00  -0.35   0.21     0.00   0.61  -0.35
     3   1    -0.00  -0.50  -0.29     0.00   0.35   0.21     0.00   0.61   0.35
     4   1    -0.00  -0.00   0.58     0.00   0.00   0.81     0.00   0.01  -0.00

 -------------------
 - Thermochemistry -
 -------------------
 Temperature   298.150 Kelvin.  Pressure   1.00000 Atm.
 Atom     1 has atomic number  8 and mass  15.99491
 Atom     2 has atomic number  1 and mass   1.00783
 Atom     3 has atomic number  1 and mass   1.00783
 Atom     4 has atomic number  1 and mass   1.00783
 Molecular mass:    19.01839 amu.
 Principal axes and moments of inertia in atomic units:
                           1         2         3
     Eigenvalues --     4.95421   4.95547   9.90968
           X            0.00000   0.00000   1.00000
           Y            1.00000   0.00000  -0.00000
           Z           -0.00000   1.00000  -0.00000
 This molecule is an asymmetric top.
 Rotational symmetry number  2.
 Rotational temperatures (Kelvin)     17.48289    17.47845     8.74033
 Rotational constants (GHZ):         364.28430   364.19172   182.11900
    1 imaginary frequencies ignored.
 Zero-point vibrational energy      92494.0 (Joules/Mol)
                                   22.10660 (Kcal/Mol)
 Vibrational temperatures:   2511.68  2512.43  5576.77  5823.34  5824.73
          (Kelvin)
 
 Zero-point correction=                           0.035229 (Hartree/Particle)
 Thermal correction to Energy=                    0.038065
 Thermal correction to Enthalpy=                  0.039009
 Thermal correction to Gibbs Free Energy=         0.016838
 Sum of electronic and zero-point Energies=            -76.273671
 Sum of electronic and thermal Energies=               -76.270835
 Sum of electronic and thermal Enthalpies=             -76.269891
 Sum of electronic and thermal Free Energies=          -76.292062
 
                     E (Thermal)             CV                S
                      KCal/Mol        Cal/Mol-Kelvin    Cal/Mol-Kelvin
 Total                   23.886              6.023             46.663
 Electronic               0.000              0.000              0.000
 Translational            0.889              2.981             34.771
 Rotational               0.889              2.981             11.885
 Vibrational             22.109              0.062              0.008
                       Q            Log10(Q)             Ln(Q)
 Total Bot       0.179898D-07         -7.744974        -17.833461
 Total V=0       0.287925D+09          8.459280         19.478212
 Vib (Bot)       0.625082D-16        -16.204063        -37.311235
 Vib (V=0)       0.100044D+01          0.000190          0.000438
 Electronic      0.100000D+01          0.000000          0.000000
 Translational   0.325998D+07          6.513214         14.997231
 Rotational      0.882826D+02          1.945875          4.480543
 ***** Axes restored to original set *****
 -------------------------------------------------------------------
 Center     Atomic                   Forces (Hartrees/Bohr)
 Number     Number              X              Y              Z
 -------------------------------------------------------------------
      1        8           0.000000000    0.000153310    0.000000000
      2        1           0.000169616   -0.000134758    0.000000000
      3        1          -0.000169616   -0.000134758   -0.000000000
      4        1           0.000000000    0.000116205    0.000000000
 -------------------------------------------------------------------
 Cartesian Forces:  Max     0.000169616 RMS     0.000104430
 FormGI is forming the generalized inverse of G from B-inverse, IUseBI=4.

 GradGradGradGradGradGradGradGradGradGradGradGradGradGradGradGradGradGrad
 Berny optimization.
 Internal  Forces:  Max     0.000214265 RMS     0.000123953
 Search for a local minimum.
 Step number   1 out of a maximum of    2
 All quantities printed in internal units (Hartrees-Bohrs-Radians)
 Second derivative matrix not updated -- analytic derivatives used.
 The second derivative matrix:
                          R1        R2        R3        A1        A2
           R1           0.57139
           R2           0.00086   0.57139
           R3           0.00087   0.00087   0.57102
           A1           0.00067   0.00067  -0.00135   0.07809
           A2           0.00068  -0.00134   0.00068  -0.03905   0.07812
           A3          -0.00134   0.00068   0.00068  -0.03905  -0.03907
           D1           0.00000  -0.00000   0.00000   0.00000  -0.00000
                          A3        D1
           A3           0.07812
           D1          -0.00000  -0.00880
 ITU=  0
     Eigenvalues ---   -0.00880   0.11713   0.11718   0.57026   0.57053
     Eigenvalues ---    0.57301
 Eigenvalue     1 is  -8.80D-03 should be greater than     0.000000 Eigenvector:
                          D1        A1        R2        A2        A3
   1                   -1.00000   0.00000  -0.00000  -0.00000  -0.00000
                          R1        R3
   1                    0.00000   0.00000
 Angle between quadratic step and forces=  27.29 degrees.
 Linear search not attempted -- first point.
 Iteration  1 RMS(Cart)=  0.00023328 RMS(Int)=  0.00000003
 Iteration  2 RMS(Cart)=  0.00000003 RMS(Int)=  0.00000000
 ClnCor:  largest displacement from symmetrization is 9.69D-12 for atom     1.
 Variable       Old X    -DE/DX   Delta X   Delta X   Delta X     New X
                                 (Linear)    (Quad)   (Total)
    R1        1.81035   0.00021   0.00000   0.00037   0.00037   1.81073
    R2        1.81035   0.00021   0.00000   0.00037   0.00037   1.81073
    R3        1.81052   0.00012   0.00000   0.00020   0.00020   1.81073
    A1        2.09473  -0.00004   0.00000  -0.00033  -0.00033   2.09440
    A2        2.09423   0.00002   0.00000   0.00017   0.00017   2.09440
    A3        2.09423   0.00002   0.00000   0.00017   0.00017   2.09440
    D1        3.14159  -0.00000   0.00000  -0.00000   0.00000   3.14159
         Item               Value     Threshold  Converged?
 Maximum Force            0.000214     0.000450     YES
 RMS     Force            0.000124     0.000300     YES
 Maximum Displacement     0.000374     0.001800     YES
 RMS     Displacement     0.000233     0.001200     YES
 Predicted change in Energy=-1.015399D-07
 Optimization completed.
    -- Stationary point found.
                           ----------------------------
                           !   Optimized Parameters   !
                           ! (Angstroms and Degrees)  !
 --------------------------                            --------------------------
 ! Name  Definition              Value          Derivative Info.                !
 --------------------------------------------------------------------------------
 ! R1    R(1,2)                  0.958          -DE/DX =    0.0002              !
 ! R2    R(1,3)                  0.958          -DE/DX =    0.0002              !
 ! R3    R(1,4)                  0.9581         -DE/DX =    0.0001              !
 ! A1    A(2,1,3)              120.019          -DE/DX =    0.0                 !
 ! A2    A(2,1,4)              119.9905         -DE/DX =    0.0                 !
 ! A3    A(3,1,4)              119.9905         -DE/DX =    0.0                 !
 ! D1    D(2,1,4,3)            180.0            -DE/DX =    0.0                 !
 --------------------------------------------------------------------------------
 GradGradGradGradGradGradGradGradGradGradGradGradGradGradGradGradGradGrad


 ----------------------------------------------------------------------

 Electric dipole moment (input orientation):
 (Debye = 10**-18 statcoulomb cm , SI units = C m)
                  (au)            (Debye)         (10**-30 SI)
   Tot        0.258958D-03      0.658206D-03      0.219554D-02
   x          0.000000D+00      0.000000D+00      0.000000D+00
   y          0.258958D-03      0.658206D-03      0.219554D-02
   z          0.000000D+00      0.000000D+00      0.000000D+00

 Dipole polarizability, Alpha (input orientation).
 (esu units = cm**3 , SI units = C**2 m**2 J**-1)
 Alpha(0;0):
               (au)            (10**-24 esu)      (10**-40 SI)
   iso        0.426710D+01      0.632319D+00      0.703550D+00
   aniso      0.234364D+01      0.347292D+00      0.386414D+00
   xx         0.504833D+01      0.748085D+00      0.832357D+00
   yx         0.000000D+00      0.000000D+00      0.000000D+00
   yy         0.504830D+01      0.748081D+00      0.832352D+00
   zx         0.000000D+00      0.000000D+00      0.000000D+00
   zy         0.000000D+00      0.000000D+00      0.000000D+00
   zz         0.270467D+01      0.400791D+00      0.445940D+00

 First dipole hyperpolarizability, Beta (input orientation).
 ||, _|_  parallel and perpendicular components, (z) with respect to z axis,
 vector components x,y,z.  Values do not include the 1/n! factor of 1/2.
 (esu units = statvolt**-1 cm**4 , SI units = C**3 m**3 J**-2)
 Beta(0;0,0):
               (au)            (10**-30 esu)      (10**-50 SI)
   || (z)     0.000000D+00      0.000000D+00      0.000000D+00
   _|_(z)     0.000000D+00      0.000000D+00      0.000000D+00
   x          0.000000D+00      0.000000D+00      0.000000D+00
   y          0.180939D-01      0.156317D-03      0.580154D-04
   z          0.000000D+00      0.000000D+00      0.000000D+00
   ||         0.361877D-02      0.312634D-04      0.116031D-04
   xxx        0.000000D+00      0.000000D+00      0.000000D+00
   xxy       -0.716163D+01     -0.618709D-01     -0.229628D-01
   yxy        0.000000D+00      0.000000D+00      0.000000D+00
   yyy        0.716792D+01      0.619252D-01      0.229829D-01
   xxz        0.000000D+00      0.000000D+00      0.000000D+00
   yxz        0.000000D+00      0.000000D+00      0.000000D+00
   yyz        0.000000D+00      0.000000D+00      0.000000D+00
   zxz        0.000000D+00      0.000000D+00      0.000000D+00
   zyz       -0.257182D-03     -0.222185D-05     -0.824618D-06
   zzz        0.000000D+00      0.000000D+00      0.000000D+00

 ----------------------------------------------------------------------

 Dipole orientation:
     8          0.00000000         -0.00000000         -0.00017315
     1          1.56795959         -0.00000000         -0.90508912
     1         -1.56795959          0.00000000         -0.90508912
     1          0.00000000          0.00000000          1.81035139

 Electric dipole moment (dipole orientation):
 (Debye = 10**-18 statcoulomb cm , SI units = C m)
                  (au)            (Debye)         (10**-30 SI)
   Tot        0.258958D-03      0.658206D-03      0.219554D-02
   x          0.000000D+00      0.000000D+00      0.000000D+00
   y          0.000000D+00      0.000000D+00      0.000000D+00
   z          0.258958D-03      0.658206D-03      0.219554D-02

 Dipole polarizability, Alpha (dipole orientation).
 (esu units = cm**3 , SI units = C**2 m**2 J**-1)
 Alpha(0;0):
               (au)            (10**-24 esu)      (10**-40 SI)
   iso        0.426710D+01      0.632319D+00      0.703550D+00
   aniso      0.234364D+01      0.347292D+00      0.386414D+00
   xx         0.504833D+01      0.748085D+00      0.832357D+00
   yx         0.000000D+00      0.000000D+00      0.000000D+00
   yy         0.270467D+01      0.400791D+00      0.445940D+00
   zx         0.000000D+00      0.000000D+00      0.000000D+00
   zy         0.000000D+00      0.000000D+00      0.000000D+00
   zz         0.504830D+01      0.748081D+00      0.832352D+00

 First dipole hyperpolarizability, Beta (dipole orientation).
 ||, _|_  parallel and perpendicular components, (z) with respect to z axis,
 vector components x,y,z.  Values do not include the 1/n! factor of 1/2.
 (esu units = statvolt**-1 cm**4 , SI units = C**3 m**3 J**-2)
 Beta(0;0,0):
               (au)            (10**-30 esu)      (10**-50 SI)
   || (z)     0.361877D-02      0.312634D-04      0.116031D-04
   _|_(z)     0.120626D-02      0.104211D-04      0.386770D-05
   x          0.000000D+00      0.000000D+00      0.000000D+00
   y          0.000000D+00      0.000000D+00      0.000000D+00
   z          0.180939D-01      0.156317D-03      0.580154D-04
   ||         0.361877D-02      0.312634D-04      0.116031D-04
   xxx        0.000000D+00      0.000000D+00      0.000000D+00
   xxy        0.000000D+00      0.000000D+00      0.000000D+00
   yxy        0.000000D+00      0.000000D+00      0.000000D+00
   yyy        0.000000D+00      0.000000D+00      0.000000D+00
   xxz       -0.716163D+01     -0.618709D-01     -0.229628D-01
   yxz        0.000000D+00      0.000000D+00      0.000000D+00
   yyz       -0.257182D-03     -0.222185D-05     -0.824618D-06
   zxz        0.000000D+00      0.000000D+00      0.000000D+00
   zyz        0.000000D+00      0.000000D+00      0.000000D+00
   zzz        0.716792D+01      0.619252D-01      0.229829D-01

 ----------------------------------------------------------------------
 1\1\GINC-SUGARCUBE\Freq\RHF\6-31G(d,p)\H3O1(1+)\JUPYTER-BRANDONC\08-Ma
 r-2023\0\\#N Geom=AllCheck Guess=TCheck SCRF=Check GenChk RHF/6-31G(d,
 p) Freq\\F Atom Calculation\\1,1\O,0.,-0.0000916265,0.\H,0.8297284835,
 -0.4789525368,0.\H,-0.8297284835,-0.4789525368,0.\H,0.,0.9579967001,0.
 \\Version=ES64L-G16RevB.01\State=1-A1\HF=-76.3089001\RMSD=6.231e-10\RM
 SF=1.044e-04\ZeroPoint=0.0352291\Thermal=0.0380652\Dipole=0.,0.000259,
 0.\DipoleDeriv=-0.6277751,0.,0.,0.,-0.6274832,0.,0.,0.,-0.5711624,0.62
 05771,-0.135033,0.,-0.1350404,0.4645161,0.,0.,0.,0.5237283,0.6205771,0
 .135033,0.,0.1350404,0.4645161,0.,0.,0.,0.5237283,0.3866208,0.,0.,0.,0
 .6984509,0.,0.,0.,0.5237058\Polar=5.0483277,0.,5.0483014,0.,0.,2.70467
 39\PolarDeriv=0.,1.7948078,0.,0.,0.,0.,1.7956349,0.,-1.7977965,0.,0.,-
 0.0000333,0.,0.,0.,0.,-0.0005851,0.,3.1460248,-1.2179818,0.9990985,0.,
 0.,0.1032548,-1.1752721,1.0731135,-1.2169142,0.,0.,-0.059585,0.,0.,0.,
 0.7473579,-0.4313422,0.,-3.1460248,-1.2179818,-0.9990985,0.,0.,-0.1032
 548,-1.1752721,-1.0731135,-1.2169142,0.,0.,-0.059585,0.,0.,0.,-0.74735
 79,-0.4313422,0.,0.,0.6411559,0.,0.,0.,0.,0.5549094,0.,4.231625,0.,0.,
 0.1192033,0.,0.,0.,0.,0.8632696,0.\HyperPolar=0.,-7.161631,0.,7.167919
 5,0.,0.,0.,0.,-0.0002572,0.\Quadrupole=1.0987219,1.097841,-2.1965629,0
 .,0.,0.\PG=C02V [C2(H1O1),SGV(H2)]\NImag=1\\1.01084469,0.,1.01016303,0
 .,0.,-0.03250921,-0.45280135,0.20063427,0.,0.44643271,0.20061246,-0.22
 097730,0.,-0.21648303,0.19632376,0.,0.,0.01086601,0.,0.,-0.00370137,-0
 .45280135,-0.20063427,0.,-0.01053549,-0.01565290,0.,0.44643271,-0.2006
 1246,-0.22097730,0.,0.01565290,0.02605923,0.,0.21648303,0.19632376,0.,
 0.,0.01086601,0.,0.,-0.00359319,0.,0.,-0.00370137,-0.10524199,0.,0.,0.
 01690414,0.03152347,0.,0.01690414,-0.03152347,0.,0.07143371,0.,-0.5682
 0843,0.,0.00019586,-0.00140569,0.,-0.00019586,-0.00140569,0.,0.,0.5710
 1981,0.,0.,0.01077718,0.,0.,-0.00357145,0.,0.,-0.00357145,0.,0.,-0.003
 63427\\0.,-0.00015331,0.,-0.00016962,0.00013476,0.,0.00016962,0.000134
 76,0.,0.,-0.00011621,0.\\\@


 Everything starts as somebody's daydream.
                           -- Larry Niven
 Job cpu time:       0 days  0 hours  0 minutes  2.6 seconds.
 Elapsed time:       0 days  0 hours  0 minutes  1.3 seconds.
 File lengths (MBytes):  RWF=      6 Int=      0 D2E=      0 Chk=      1 Scr=      1
 Normal termination of Gaussian 16 at Wed Mar  8 17:28:52 2023.
