 Entering Gaussian System, Link 0=g16
 Input=input.com
 Output=input.log
 Initial command:
 /usr/bin/g16/l1.exe "/scratch-data/g16-scratch/Gau-328227.inp" -scrdir="/scratch-data/g16-scratch/"
 Entering Link 1 = /usr/bin/g16/l1.exe PID=    328229.
  
 Copyright (c) 1988-2017, Gaussian, Inc.  All Rights Reserved.
  
 This is part of the Gaussian(R) 16 program.  It is based on
 the Gaussian(R) 09 system (copyright 2009, Gaussian, Inc.),
 the Gaussian(R) 03 system (copyright 2003, Gaussian, Inc.),
 the Gaussian(R) 98 system (copyright 1998, Gaussian, Inc.),
 the Gaussian(R) 94 system (copyright 1995, Gaussian, Inc.),
 the Gaussian 92(TM) system (copyright 1992, Gaussian, Inc.),
 the Gaussian 90(TM) system (copyright 1990, Gaussian, Inc.),
 the Gaussian 88(TM) system (copyright 1988, Gaussian, Inc.),
 the Gaussian 86(TM) system (copyright 1986, Carnegie Mellon
 University), and the Gaussian 82(TM) system (copyright 1983,
 Carnegie Mellon University). Gaussian is a federally registered
 trademark of Gaussian, Inc.
  
 This software contains proprietary and confidential information,
 including trade secrets, belonging to Gaussian, Inc.
  
 This software is provided under written license and may be
 used, copied, transmitted, or stored only in accord with that
 written license.
  
 The following legend is applicable only to US Government
 contracts under FAR:
  
                    RESTRICTED RIGHTS LEGEND
  
 Use, reproduction and disclosure by the US Government is
 subject to restrictions as set forth in subparagraphs (a)
 and (c) of the Commercial Computer Software - Restricted
 Rights clause in FAR 52.227-19.
  
 Gaussian, Inc.
 340 Quinnipiac St., Bldg. 40, Wallingford CT 06492
  
  
 ---------------------------------------------------------------
 Warning -- This program may not be used in any manner that
 competes with the business of Gaussian, Inc. or will provide
 assistance to any competitor of Gaussian, Inc.  The licensee
 of this program is prohibited from giving any competitor of
 Gaussian, Inc. access to this program.  By using this program,
 the user acknowledges that Gaussian, Inc. is engaged in the
 business of creating and licensing software in the field of
 computational chemistry and represents and warrants to the
 licensee that it is not a competitor of Gaussian, Inc. and that
 it will not use this program in any manner prohibited above.
 ---------------------------------------------------------------
  

 Cite this work as:
 Gaussian 16, Revision B.01,
 M. J. Frisch, G. W. Trucks, H. B. Schlegel, G. E. Scuseria, 
 M. A. Robb, J. R. Cheeseman, G. Scalmani, V. Barone, 
 G. A. Petersson, H. Nakatsuji, X. Li, M. Caricato, A. V. Marenich, 
 J. Bloino, B. G. Janesko, R. Gomperts, B. Mennucci, H. P. Hratchian, 
 J. V. Ortiz, A. F. Izmaylov, J. L. Sonnenberg, D. Williams-Young, 
 F. Ding, F. Lipparini, F. Egidi, J. Goings, B. Peng, A. Petrone, 
 T. Henderson, D. Ranasinghe, V. G. Zakrzewski, J. Gao, N. Rega, 
 G. Zheng, W. Liang, M. Hada, M. Ehara, K. Toyota, R. Fukuda, 
 J. Hasegawa, M. Ishida, T. Nakajima, Y. Honda, O. Kitao, H. Nakai, 
 T. Vreven, K. Throssell, J. A. Montgomery, Jr., J. E. Peralta, 
 F. Ogliaro, M. J. Bearpark, J. J. Heyd, E. N. Brothers, K. N. Kudin, 
 V. N. Staroverov, T. A. Keith, R. Kobayashi, J. Normand, 
 K. Raghavachari, A. P. Rendell, J. C. Burant, S. S. Iyengar, 
 J. Tomasi, M. Cossi, J. M. Millam, M. Klene, C. Adamo, R. Cammi, 
 J. W. Ochterski, R. L. Martin, K. Morokuma, O. Farkas, 
 J. B. Foresman, and D. J. Fox, Gaussian, Inc., Wallingford CT, 2016.
 
 ******************************************
 Gaussian 16:  ES64L-G16RevB.01 20-Dec-2017
                13-Mar-2023 
 ******************************************
 %nproc=4
 Will use up to    4 processors via shared memory.
 %mem=400MB
 -------------------------------
 # MP2 6-31G(d,p) scf=tight scan
 -------------------------------
 1/38=1,60=1,172=1/1,8;
 2/12=2,17=6,18=5,29=3,40=1/2;
 3/5=1,6=6,7=101,11=9,25=1,30=1/1,2,3;
 4//1;
 5/5=2,32=2,38=5/2;
 8/10=2/1;
 9/16=-3/6;
 6/7=2,8=2,9=2,10=2,18=1/1;
 1/60=1/8(1);
 99/9=1/99;
 2/29=3/2;
 3/5=1,6=6,7=101,11=9,25=1,30=1/1,2,3;
 4/5=5,16=3,69=1/1;
 5/5=2,32=2,38=5/2;
 8/10=2/1;
 9/16=-3/6;
 1/60=1/8(-6);
 99/9=1/99;
 -----------------------------
 h3o+ scan along umbrella mode
 -----------------------------
 Symbolic Z-matrix:
 Charge =  1 Multiplicity = 1
 O
 X                    1    a
 H                    1    a        2    HOX
 H                    1    a        2    HOX      3     120.     0
 H                    1    a        2    HOX      3    -120.     0
       Variables:
  a                     0.9612                   
  HOX                 135.     Scan 45   -1.     
 
 Scan the potential surface.
 Variable   Value     No. Steps Step-Size
 -------- ----------- --------- ---------
     2     135.000000      45     -1.0000
 A total of     46 points will be computed.
 ---------------------------------------------------------------------------------------------------
                            Z-MATRIX (ANGSTROMS AND DEGREES)
   CD    Cent   Atom    N1       Length/X        N2       Alpha/Y        N3        Beta/Z          J
 ---------------------------------------------------------------------------------------------------
      1      1  O 
      2         X        1   0.961200(     1)
      3      2  H        1   0.961200(     2)      2  135.000(     5)
      4      3  H        1   0.961200(     3)      2  135.000(     6)      3  120.000(     8)      0
      5      4  H        1   0.961200(     4)      2  135.000(     7)      3 -120.000(     9)      0
 ---------------------------------------------------------------------------------------------------
                         Z-Matrix orientation:                         
 ---------------------------------------------------------------------
 Center     Atomic      Atomic             Coordinates (Angstroms)
 Number     Number       Type             X           Y           Z
 ---------------------------------------------------------------------
      1          8           0        0.000000    0.000000    0.000000
      2         -1           0        0.000000    0.000000    0.961200
      3          1           0        0.679671    0.000000   -0.679671
      4          1           0       -0.339836   -0.588612   -0.679671
      5          1           0       -0.339836    0.588612   -0.679671
 ---------------------------------------------------------------------
                    Distance matrix (angstroms):
                    1          2          3          4          5
     1  O    0.000000
     2  X    0.961200   0.000000
     3  H    0.961200   1.776066   0.000000
     4  H    0.961200   1.776066   1.177225   0.000000
     5  H    0.961200   1.776066   1.177225   1.177225   0.000000
 Stoichiometry    H3O(1+)
 Framework group  C3V[C3(O),3SGV(H)]
 Deg. of freedom     2
 Full point group                 C3V     NOp   6
 Largest Abelian subgroup         CS      NOp   2
 Largest concise Abelian subgroup CS      NOp   2
                         Standard orientation:                         
 ---------------------------------------------------------------------
 Center     Atomic      Atomic             Coordinates (Angstroms)
 Number     Number       Type             X           Y           Z
 ---------------------------------------------------------------------
      1          8           0        0.000000    0.000000    0.185365
      2          1           0        0.000000    0.679671   -0.494306
      3          1           0        0.588612   -0.339836   -0.494306
      4          1           0       -0.588612   -0.339836   -0.494306
 ---------------------------------------------------------------------
 Rotational constants (GHZ):         361.8372493         269.8216861         269.8216861
 Standard basis: 6-31G(d,p) (6D, 7F)
 There are    20 symmetry adapted cartesian basis functions of A'  symmetry.
 There are    10 symmetry adapted cartesian basis functions of A"  symmetry.
 There are    20 symmetry adapted basis functions of A'  symmetry.
 There are    10 symmetry adapted basis functions of A"  symmetry.
    30 basis functions,    49 primitive gaussians,    30 cartesian basis functions
     5 alpha electrons        5 beta electrons
       nuclear repulsion energy        14.5614515318 Hartrees.
 NAtoms=    4 NActive=    4 NUniq=    2 SFac= 4.00D+00 NAtFMM=   60 NAOKFM=F Big=F
 Integral buffers will be    131072 words long.
 Raffenetti 1 integral format.
 Two-electron integral symmetry is turned on.
 One-electron integrals computed using PRISM.
 NBasis=    30 RedAO= T EigKep=  1.64D-02  NBF=    20    10
 NBsUse=    30 1.00D-06 EigRej= -1.00D+00 NBFU=    20    10
 ExpMin= 1.61D-01 ExpMax= 5.48D+03 ExpMxC= 8.25D+02 IAcc=3 IRadAn=         5 AccDes= 0.00D+00
 Harris functional with IExCor=  205 and IRadAn=       5 diagonalized for initial guess.
 HarFok:  IExCor=  205 AccDes= 0.00D+00 IRadAn=         5 IDoV= 1 UseB2=F ITyADJ=14
 ICtDFT=  3500011 ScaDFX=  1.000000  1.000000  1.000000  1.000000
 FoFCou: FMM=F IPFlag=           0 FMFlag=      100000 FMFlg1=           0
         NFxFlg=           0 DoJE=T BraDBF=F KetDBF=T FulRan=T
         wScrn=  0.000000 ICntrl=       500 IOpCl=  0 I1Cent=   200000004 NGrid=           0
         NMat0=    1 NMatS0=      1 NMatT0=    0 NMatD0=    1 NMtDS0=    0 NMtDT0=    0
 Petite list used in FoFCou.
 Initial guess orbital symmetries:
       Occupied  (A1) (A1) (E) (E) (A1)
       Virtual   (A1) (E) (E) (E) (E) (A1) (A1) (E) (E) (A1) (E)
                 (E) (A1) (E) (E) (E) (E) (A2) (A1) (E) (E) (A1)
                 (E) (E) (A1)
 The electronic state of the initial guess is 1-A1.
 Keep R1 ints in memory in symmetry-blocked form, NReq=940861.
 Requested convergence on RMS density matrix=1.00D-08 within 128 cycles.
 Requested convergence on MAX density matrix=1.00D-06.
 Requested convergence on             energy=1.00D-06.
 No special actions if energy rises.
 SCF Done:  E(RHF) =  -76.2084334233     A.U. after    9 cycles
            NFock=  9  Conv=0.34D-08     -V/T= 1.9998
 ExpMin= 1.61D-01 ExpMax= 5.48D+03 ExpMxC= 8.25D+02 IAcc=3 IRadAn=         5 AccDes= 0.00D+00
 HarFok:  IExCor=  205 AccDes= 0.00D+00 IRadAn=         5 IDoV=-2 UseB2=F ITyADJ=14
 ICtDFT= 12500011 ScaDFX=  1.000000  1.000000  1.000000  1.000000
 Range of M.O.s used for correlation:     2    30
 NBasis=    30 NAE=     5 NBE=     5 NFC=     1 NFV=     0
 NROrb=     29 NOA=     4 NOB=     4 NVA=    25 NVB=    25
 Fully in-core method, ICMem=     6273201.
 JobTyp=1 Pass  1 fully in-core, NPsUse=  4.
 Spin components of T(2) and E(2):
     alpha-alpha T2 =       0.6601139671D-02 E2=     -0.2555717829D-01
     alpha-beta  T2 =       0.3961080022D-01 E2=     -0.1556494395D+00
     beta-beta   T2 =       0.6601139671D-02 E2=     -0.2555717829D-01
 ANorm=    0.1026066801D+01
 E2 =    -0.2067637961D+00 EUMP2 =    -0.76415197219358D+02

 **********************************************************************

            Population analysis using the SCF Density.

 **********************************************************************

 Orbital symmetries:
       Occupied  (A1) (A1) (E) (E) (A1)
       Virtual   (A1) (E) (E) (E) (E) (A1) (A1) (E) (E) (A1) (E)
                 (E) (A1) (E) (E) (E) (E) (A2) (A1) (E) (E) (A1)
                 (E) (E) (A1)
 The electronic state is 1-A1.
 Alpha  occ. eigenvalues --  -21.06403  -1.90769  -1.10298  -1.10298  -1.08289
 Alpha virt. eigenvalues --   -0.15314  -0.02960  -0.02960   0.56401   0.56401
 Alpha virt. eigenvalues --    0.66620   0.78978   0.90191   0.90191   1.09720
 Alpha virt. eigenvalues --    1.23940   1.23940   1.83400   2.09545   2.09545
 Alpha virt. eigenvalues --    2.40212   2.40212   2.46366   2.93935   2.94040
 Alpha virt. eigenvalues --    2.94040   3.21275   3.54295   3.54295   3.64881
          Condensed to atoms (all electrons):
               1          2          3          4
     1  O    7.399701   0.284528   0.284528   0.284528
     2  H    0.284528   0.306758  -0.004524  -0.004524
     3  H    0.284528  -0.004524   0.306758  -0.004524
     4  H    0.284528  -0.004524  -0.004524   0.306758
 Mulliken charges:
               1
     1  O   -0.253286
     2  H    0.417762
     3  H    0.417762
     4  H    0.417762
 Sum of Mulliken charges =   1.00000
 Mulliken charges with hydrogens summed into heavy atoms:
               1
     1  O    1.000000
 Electronic spatial extent (au):  <R**2>=             18.0534
 Charge=              1.0000 electrons
 Dipole moment (field-independent basis, Debye):
    X=             -0.0000    Y=             -0.0000    Z=             -3.4856  Tot=              3.4856
 Quadrupole moment (field-independent basis, Debye-Ang):
   XX=             -4.3749   YY=             -4.3749   ZZ=             -4.0351
   XY=             -0.0000   XZ=              0.0000   YZ=              0.0000
 Traceless Quadrupole moment (field-independent basis, Debye-Ang):
   XX=             -0.1133   YY=             -0.1133   ZZ=              0.2265
   XY=             -0.0000   XZ=              0.0000   YZ=              0.0000
 Octapole moment (field-independent basis, Debye-Ang**2):
  XXX=             -0.0000  YYY=              0.5782  ZZZ=             -2.4573  XYY=              0.0000
  XXY=             -0.5782  XXZ=             -1.3678  XZZ=             -0.0000  YZZ=             -0.0000
  YYZ=             -1.3678  XYZ=              0.0000
 Hexadecapole moment (field-independent basis, Debye-Ang**3):
 XXXX=             -4.3953 YYYY=             -4.3953 ZZZZ=             -5.2589 XXXY=              0.0000
 XXXZ=              0.0000 YYYX=             -0.0000 YYYZ=             -0.3652 ZZZX=             -0.0000
 ZZZY=             -0.0000 XXYY=             -1.4651 XXZZ=             -1.2761 YYZZ=             -1.2761
 XXYZ=              0.3652 YYXZ=             -0.0000 ZZXY=             -0.0000
 N-N= 1.456145153178D+01 E-N=-2.052438412711D+02  KE= 7.622520388674D+01
 Symmetry A'   KE= 7.211333673010D+01
 Symmetry A"   KE= 4.111867156644D+00
 Variable Step   Value    
 -------- ---- -----------
     2       1    2.338741
 ---------------------------------------------------------------------------------------------------
                            Z-MATRIX (ANGSTROMS AND DEGREES)
   CD    Cent   Atom    N1       Length/X        N2       Alpha/Y        N3        Beta/Z          J
 ---------------------------------------------------------------------------------------------------
      1      1  O 
      2         X        1   0.961200(     1)
      3      2  H        1   0.961200(     2)      2  134.000(     5)
      4      3  H        1   0.961200(     3)      2  134.000(     6)      3  120.000(     8)      0
      5      4  H        1   0.961200(     4)      2  134.000(     7)      3 -120.000(     9)      0
 ---------------------------------------------------------------------------------------------------
                         Z-Matrix orientation:                         
 ---------------------------------------------------------------------
 Center     Atomic      Atomic             Coordinates (Angstroms)
 Number     Number       Type             X           Y           Z
 ---------------------------------------------------------------------
      1          8           0        0.000000    0.000000    0.000000
      2         -1           0        0.000000    0.000000    0.961200
      3          1           0        0.691429    0.000000   -0.667706
      4          1           0       -0.345715   -0.598795   -0.667706
      5          1           0       -0.345715    0.598795   -0.667706
 ---------------------------------------------------------------------
                    Distance matrix (angstroms):
                    1          2          3          4          5
     1  O    0.000000
     2  X    0.961200   0.000000
     3  H    0.961200   1.769579   0.000000
     4  H    0.961200   1.769579   1.197591   0.000000
     5  H    0.961200   1.769579   1.197591   1.197591   0.000000
 Stoichiometry    H3O(1+)
 Framework group  C3V[C3(O),3SGV(H)]
 Deg. of freedom     2
 Full point group                 C3V     NOp   6
 Largest Abelian subgroup         CS      NOp   2
 Largest concise Abelian subgroup CS      NOp   2
                         Standard orientation:                         
 ---------------------------------------------------------------------
 Center     Atomic      Atomic             Coordinates (Angstroms)
 Number     Number       Type             X           Y           Z
 ---------------------------------------------------------------------
      1          8           0        0.000000    0.000000    0.182102
      2          1           0        0.000000    0.691429   -0.485604
      3          1           0        0.598795   -0.345715   -0.485604
      4          1           0       -0.598795   -0.345715   -0.485604
 ---------------------------------------------------------------------
 Rotational constants (GHZ):         349.6351582         272.2377899         272.2377899
 Standard basis: 6-31G(d,p) (6D, 7F)
 There are    20 symmetry adapted cartesian basis functions of A'  symmetry.
 There are    10 symmetry adapted cartesian basis functions of A"  symmetry.
 There are    20 symmetry adapted basis functions of A'  symmetry.
 There are    10 symmetry adapted basis functions of A"  symmetry.
    30 basis functions,    49 primitive gaussians,    30 cartesian basis functions
     5 alpha electrons        5 beta electrons
       nuclear repulsion energy        14.5385184425 Hartrees.
 NAtoms=    4 NActive=    4 NUniq=    2 SFac= 4.00D+00 NAtFMM=   60 NAOKFM=F Big=F
 Integral buffers will be    131072 words long.
 Raffenetti 1 integral format.
 Two-electron integral symmetry is turned on.
 One-electron integrals computed using PRISM.
 NBasis=    30 RedAO= T EigKep=  1.63D-02  NBF=    20    10
 NBsUse=    30 1.00D-06 EigRej= -1.00D+00 NBFU=    20    10
 Initial guess from the checkpoint file:  "/scratch-data/g16-scratch/Gau-328229.chk"
 B after Tr=     0.000000    0.000000   -0.000000
         Rot=    1.000000    0.000000    0.000000    0.000000 Ang=   0.00 deg.
 Initial guess orbital symmetries:
       Occupied  (A1) (A1) (E) (E) (A1)
       Virtual   (A1) (E) (E) (E) (E) (A1) (A1) (E) (E) (A1) (E)
                 (E) (A1) (E) (E) (E) (E) (A2) (A1) (E) (E) (A1)
                 (E) (E) (A1)
 ExpMin= 1.61D-01 ExpMax= 5.48D+03 ExpMxC= 8.25D+02 IAcc=3 IRadAn=         5 AccDes= 0.00D+00
 Harris functional with IExCor=  205 and IRadAn=       5 diagonalized for initial guess.
 HarFok:  IExCor=  205 AccDes= 0.00D+00 IRadAn=         5 IDoV= 1 UseB2=F ITyADJ=14
 ICtDFT=  3500011 ScaDFX=  1.000000  1.000000  1.000000  1.000000
 FoFCou: FMM=F IPFlag=           0 FMFlag=      100000 FMFlg1=           0
         NFxFlg=           0 DoJE=T BraDBF=F KetDBF=T FulRan=T
         wScrn=  0.000000 ICntrl=       500 IOpCl=  0 I1Cent=   200000004 NGrid=           0
         NMat0=    1 NMatS0=      1 NMatT0=    0 NMatD0=    1 NMtDS0=    0 NMtDT0=    0
 Petite list used in FoFCou.
 Keep R1 ints in memory in symmetry-blocked form, NReq=940861.
 Requested convergence on RMS density matrix=1.00D-08 within 128 cycles.
 Requested convergence on MAX density matrix=1.00D-06.
 Requested convergence on             energy=1.00D-06.
 No special actions if energy rises.
 SCF Done:  E(RHF) =  -76.2170946459     A.U. after    8 cycles
            NFock=  8  Conv=0.35D-08     -V/T= 2.0000
 ExpMin= 1.61D-01 ExpMax= 5.48D+03 ExpMxC= 8.25D+02 IAcc=3 IRadAn=         5 AccDes= 0.00D+00
 HarFok:  IExCor=  205 AccDes= 0.00D+00 IRadAn=         5 IDoV=-2 UseB2=F ITyADJ=14
 ICtDFT= 12500011 ScaDFX=  1.000000  1.000000  1.000000  1.000000
 Range of M.O.s used for correlation:     2    30
 NBasis=    30 NAE=     5 NBE=     5 NFC=     1 NFV=     0
 NROrb=     29 NOA=     4 NOB=     4 NVA=    25 NVB=    25
 Fully in-core method, ICMem=     6273201.
 JobTyp=1 Pass  1 fully in-core, NPsUse=  4.
 Spin components of T(2) and E(2):
     alpha-alpha T2 =       0.6538162325D-02 E2=     -0.2540464557D-01
     alpha-beta  T2 =       0.3940475859D-01 E2=     -0.1552317644D+00
     beta-beta   T2 =       0.6538162325D-02 E2=     -0.2540464557D-01
 ANorm=    0.1025905007D+01
 E2 =    -0.2060410555D+00 EUMP2 =    -0.76423135701441D+02
 Variable Step   Value    
 -------- ---- -----------
     2       2    2.321288
 ---------------------------------------------------------------------------------------------------
                            Z-MATRIX (ANGSTROMS AND DEGREES)
   CD    Cent   Atom    N1       Length/X        N2       Alpha/Y        N3        Beta/Z          J
 ---------------------------------------------------------------------------------------------------
      1      1  O 
      2         X        1   0.961200(     1)
      3      2  H        1   0.961200(     2)      2  133.000(     5)
      4      3  H        1   0.961200(     3)      2  133.000(     6)      3  120.000(     8)      0
      5      4  H        1   0.961200(     4)      2  133.000(     7)      3 -120.000(     9)      0
 ---------------------------------------------------------------------------------------------------
                         Z-Matrix orientation:                         
 ---------------------------------------------------------------------
 Center     Atomic      Atomic             Coordinates (Angstroms)
 Number     Number       Type             X           Y           Z
 ---------------------------------------------------------------------
      1          8           0        0.000000    0.000000    0.000000
      2         -1           0        0.000000    0.000000    0.961200
      3          1           0        0.702977    0.000000   -0.655537
      4          1           0       -0.351489   -0.608796   -0.655537
      5          1           0       -0.351489    0.608796   -0.655537
 ---------------------------------------------------------------------
                    Distance matrix (angstroms):
                    1          2          3          4          5
     1  O    0.000000
     2  X    0.961200   0.000000
     3  H    0.961200   1.762956   0.000000
     4  H    0.961200   1.762956   1.217592   0.000000
     5  H    0.961200   1.762956   1.217592   1.217592   0.000000
 Stoichiometry    H3O(1+)
 Framework group  C3V[C3(O),3SGV(H)]
 Deg. of freedom     2
 Full point group                 C3V     NOp   6
 Largest Abelian subgroup         CS      NOp   2
 Largest concise Abelian subgroup CS      NOp   2
                         Standard orientation:                         
 ---------------------------------------------------------------------
 Center     Atomic      Atomic             Coordinates (Angstroms)
 Number     Number       Type             X           Y           Z
 ---------------------------------------------------------------------
      1          8           0        0.000000    0.000000    0.178783
      2          1           0        0.000000    0.702977   -0.476754
      3          1           0        0.608796   -0.351489   -0.476754
      4          1           0       -0.608796   -0.351489   -0.476754
 ---------------------------------------------------------------------
 Rotational constants (GHZ):         338.2426357         274.6945306         274.6945306
 Standard basis: 6-31G(d,p) (6D, 7F)
 There are    20 symmetry adapted cartesian basis functions of A'  symmetry.
 There are    10 symmetry adapted cartesian basis functions of A"  symmetry.
 There are    20 symmetry adapted basis functions of A'  symmetry.
 There are    10 symmetry adapted basis functions of A"  symmetry.
    30 basis functions,    49 primitive gaussians,    30 cartesian basis functions
     5 alpha electrons        5 beta electrons
       nuclear repulsion energy        14.5167428238 Hartrees.
 NAtoms=    4 NActive=    4 NUniq=    2 SFac= 4.00D+00 NAtFMM=   60 NAOKFM=F Big=F
 Integral buffers will be    131072 words long.
 Raffenetti 1 integral format.
 Two-electron integral symmetry is turned on.
 One-electron integrals computed using PRISM.
 NBasis=    30 RedAO= T EigKep=  1.63D-02  NBF=    20    10
 NBsUse=    30 1.00D-06 EigRej= -1.00D+00 NBFU=    20    10
 Initial guess from the checkpoint file:  "/scratch-data/g16-scratch/Gau-328229.chk"
 B after Tr=     0.000000    0.000000   -0.000000
         Rot=    1.000000    0.000000    0.000000   -0.000000 Ang=   0.00 deg.
 Initial guess orbital symmetries:
       Occupied  (A1) (A1) (E) (E) (A1)
       Virtual   (A1) (E) (E) (E) (E) (A1) (A1) (E) (E) (A1) (E)
                 (E) (A1) (E) (E) (E) (E) (A2) (E) (E) (A1) (A1)
                 (E) (E) (A1)
 ExpMin= 1.61D-01 ExpMax= 5.48D+03 ExpMxC= 8.25D+02 IAcc=3 IRadAn=         5 AccDes= 0.00D+00
 Harris functional with IExCor=  205 and IRadAn=       5 diagonalized for initial guess.
 HarFok:  IExCor=  205 AccDes= 0.00D+00 IRadAn=         5 IDoV= 1 UseB2=F ITyADJ=14
 ICtDFT=  3500011 ScaDFX=  1.000000  1.000000  1.000000  1.000000
 FoFCou: FMM=F IPFlag=           0 FMFlag=      100000 FMFlg1=           0
         NFxFlg=           0 DoJE=T BraDBF=F KetDBF=T FulRan=T
         wScrn=  0.000000 ICntrl=       500 IOpCl=  0 I1Cent=   200000004 NGrid=           0
         NMat0=    1 NMatS0=      1 NMatT0=    0 NMatD0=    1 NMtDS0=    0 NMtDT0=    0
 Petite list used in FoFCou.
 Keep R1 ints in memory in symmetry-blocked form, NReq=940861.
 Requested convergence on RMS density matrix=1.00D-08 within 128 cycles.
 Requested convergence on MAX density matrix=1.00D-06.
 Requested convergence on             energy=1.00D-06.
 No special actions if energy rises.
 SCF Done:  E(RHF) =  -76.2252277085     A.U. after    8 cycles
            NFock=  8  Conv=0.33D-08     -V/T= 2.0002
 ExpMin= 1.61D-01 ExpMax= 5.48D+03 ExpMxC= 8.25D+02 IAcc=3 IRadAn=         5 AccDes= 0.00D+00
 HarFok:  IExCor=  205 AccDes= 0.00D+00 IRadAn=         5 IDoV=-2 UseB2=F ITyADJ=14
 ICtDFT= 12500011 ScaDFX=  1.000000  1.000000  1.000000  1.000000
 Range of M.O.s used for correlation:     2    30
 NBasis=    30 NAE=     5 NBE=     5 NFC=     1 NFV=     0
 NROrb=     29 NOA=     4 NOB=     4 NVA=    25 NVB=    25
 Fully in-core method, ICMem=     6273201.
 JobTyp=1 Pass  1 fully in-core, NPsUse=  4.
 Spin components of T(2) and E(2):
     alpha-alpha T2 =       0.6478200491D-02 E2=     -0.2525852322D-01
     alpha-beta  T2 =       0.3920264986D-01 E2=     -0.1548189731D+00
     beta-beta   T2 =       0.6478200491D-02 E2=     -0.2525852322D-01
 ANorm=    0.1025748045D+01
 E2 =    -0.2053360195D+00 EUMP2 =    -0.76430563728023D+02
 Variable Step   Value    
 -------- ---- -----------
     2       3    2.303835
 ---------------------------------------------------------------------------------------------------
                            Z-MATRIX (ANGSTROMS AND DEGREES)
   CD    Cent   Atom    N1       Length/X        N2       Alpha/Y        N3        Beta/Z          J
 ---------------------------------------------------------------------------------------------------
      1      1  O 
      2         X        1   0.961200(     1)
      3      2  H        1   0.961200(     2)      2  132.000(     5)
      4      3  H        1   0.961200(     3)      2  132.000(     6)      3  120.000(     8)      0
      5      4  H        1   0.961200(     4)      2  132.000(     7)      3 -120.000(     9)      0
 ---------------------------------------------------------------------------------------------------
                         Z-Matrix orientation:                         
 ---------------------------------------------------------------------
 Center     Atomic      Atomic             Coordinates (Angstroms)
 Number     Number       Type             X           Y           Z
 ---------------------------------------------------------------------
      1          8           0        0.000000    0.000000    0.000000
      2         -1           0        0.000000    0.000000    0.961200
      3          1           0        0.714311    0.000000   -0.643168
      4          1           0       -0.357155   -0.618611   -0.643168
      5          1           0       -0.357155    0.618611   -0.643168
 ---------------------------------------------------------------------
                    Distance matrix (angstroms):
                    1          2          3          4          5
     1  O    0.000000
     2  X    0.961200   0.000000
     3  H    0.961200   1.756200   0.000000
     4  H    0.961200   1.756200   1.237223   0.000000
     5  H    0.961200   1.756200   1.237223   1.237223   0.000000
 Stoichiometry    H3O(1+)
 Framework group  C3V[C3(O),3SGV(H)]
 Deg. of freedom     2
 Full point group                 C3V     NOp   6
 Largest Abelian subgroup         CS      NOp   2
 Largest concise Abelian subgroup CS      NOp   2
                         Standard orientation:                         
 ---------------------------------------------------------------------
 Center     Atomic      Atomic             Coordinates (Angstroms)
 Number     Number       Type             X           Y           Z
 ---------------------------------------------------------------------
      1          8           0        0.000000    0.000000    0.175410
      2          1           0        0.000000    0.714311   -0.467759
      3          1           0        0.618611   -0.357155   -0.467759
      4          1           0       -0.618611   -0.357155   -0.467759
 ---------------------------------------------------------------------
 Rotational constants (GHZ):         327.5943186         277.1898609         277.1898609
 Standard basis: 6-31G(d,p) (6D, 7F)
 There are    20 symmetry adapted cartesian basis functions of A'  symmetry.
 There are    10 symmetry adapted cartesian basis functions of A"  symmetry.
 There are    20 symmetry adapted basis functions of A'  symmetry.
 There are    10 symmetry adapted basis functions of A"  symmetry.
    30 basis functions,    49 primitive gaussians,    30 cartesian basis functions
     5 alpha electrons        5 beta electrons
       nuclear repulsion energy        14.4960555969 Hartrees.
 NAtoms=    4 NActive=    4 NUniq=    2 SFac= 4.00D+00 NAtFMM=   60 NAOKFM=F Big=F
 Integral buffers will be    131072 words long.
 Raffenetti 1 integral format.
 Two-electron integral symmetry is turned on.
 One-electron integrals computed using PRISM.
 NBasis=    30 RedAO= T EigKep=  1.63D-02  NBF=    20    10
 NBsUse=    30 1.00D-06 EigRej= -1.00D+00 NBFU=    20    10
 Initial guess from the checkpoint file:  "/scratch-data/g16-scratch/Gau-328229.chk"
 B after Tr=    -0.000000   -0.000000    0.000000
         Rot=    1.000000   -0.000000    0.000000    0.000000 Ang=   0.00 deg.
 Initial guess orbital symmetries:
       Occupied  (A1) (A1) (E) (E) (A1)
       Virtual   (A1) (E) (E) (E) (E) (A1) (A1) (E) (E) (A1) (E)
                 (E) (A1) (E) (E) (A2) (E) (E) (E) (E) (A1) (A1)
                 (E) (E) (A1)
 ExpMin= 1.61D-01 ExpMax= 5.48D+03 ExpMxC= 8.25D+02 IAcc=3 IRadAn=         5 AccDes= 0.00D+00
 Harris functional with IExCor=  205 and IRadAn=       5 diagonalized for initial guess.
 HarFok:  IExCor=  205 AccDes= 0.00D+00 IRadAn=         5 IDoV= 1 UseB2=F ITyADJ=14
 ICtDFT=  3500011 ScaDFX=  1.000000  1.000000  1.000000  1.000000
 FoFCou: FMM=F IPFlag=           0 FMFlag=      100000 FMFlg1=           0
         NFxFlg=           0 DoJE=T BraDBF=F KetDBF=T FulRan=T
         wScrn=  0.000000 ICntrl=       500 IOpCl=  0 I1Cent=   200000004 NGrid=           0
         NMat0=    1 NMatS0=      1 NMatT0=    0 NMatD0=    1 NMtDS0=    0 NMtDT0=    0
 Petite list used in FoFCou.
 Keep R1 ints in memory in symmetry-blocked form, NReq=940861.
 Requested convergence on RMS density matrix=1.00D-08 within 128 cycles.
 Requested convergence on MAX density matrix=1.00D-06.
 Requested convergence on             energy=1.00D-06.
 No special actions if energy rises.
 SCF Done:  E(RHF) =  -76.2328568241     A.U. after    8 cycles
            NFock=  8  Conv=0.32D-08     -V/T= 2.0004
 ExpMin= 1.61D-01 ExpMax= 5.48D+03 ExpMxC= 8.25D+02 IAcc=3 IRadAn=         5 AccDes= 0.00D+00
 HarFok:  IExCor=  205 AccDes= 0.00D+00 IRadAn=         5 IDoV=-2 UseB2=F ITyADJ=14
 ICtDFT= 12500011 ScaDFX=  1.000000  1.000000  1.000000  1.000000
 Range of M.O.s used for correlation:     2    30
 NBasis=    30 NAE=     5 NBE=     5 NFC=     1 NFV=     0
 NROrb=     29 NOA=     4 NOB=     4 NVA=    25 NVB=    25
 Fully in-core method, ICMem=     6273201.
 JobTyp=1 Pass  1 fully in-core, NPsUse=  4.
 Spin components of T(2) and E(2):
     alpha-alpha T2 =       0.6421385172D-02 E2=     -0.2511939565D-01
     alpha-beta  T2 =       0.3900528892D-01 E2=     -0.1544134734D+00
     beta-beta   T2 =       0.6421385172D-02 E2=     -0.2511939565D-01
 ANorm=    0.1025596441D+01
 E2 =    -0.2046522647D+00 EUMP2 =    -0.76437509088735D+02
 Variable Step   Value    
 -------- ---- -----------
     2       4    2.286381
 ---------------------------------------------------------------------------------------------------
                            Z-MATRIX (ANGSTROMS AND DEGREES)
   CD    Cent   Atom    N1       Length/X        N2       Alpha/Y        N3        Beta/Z          J
 ---------------------------------------------------------------------------------------------------
      1      1  O 
      2         X        1   0.961200(     1)
      3      2  H        1   0.961200(     2)      2  131.000(     5)
      4      3  H        1   0.961200(     3)      2  131.000(     6)      3  120.000(     8)      0
      5      4  H        1   0.961200(     4)      2  131.000(     7)      3 -120.000(     9)      0
 ---------------------------------------------------------------------------------------------------
                         Z-Matrix orientation:                         
 ---------------------------------------------------------------------
 Center     Atomic      Atomic             Coordinates (Angstroms)
 Number     Number       Type             X           Y           Z
 ---------------------------------------------------------------------
      1          8           0        0.000000    0.000000    0.000000
      2         -1           0        0.000000    0.000000    0.961200
      3          1           0        0.725427    0.000000   -0.630604
      4          1           0       -0.362713   -0.628238   -0.630604
      5          1           0       -0.362713    0.628238   -0.630604
 ---------------------------------------------------------------------
                    Distance matrix (angstroms):
                    1          2          3          4          5
     1  O    0.000000
     2  X    0.961200   0.000000
     3  H    0.961200   1.749310   0.000000
     4  H    0.961200   1.749310   1.256476   0.000000
     5  H    0.961200   1.749310   1.256476   1.256476   0.000000
 Stoichiometry    H3O(1+)
 Framework group  C3V[C3(O),3SGV(H)]
 Deg. of freedom     2
 Full point group                 C3V     NOp   6
 Largest Abelian subgroup         CS      NOp   2
 Largest concise Abelian subgroup CS      NOp   2
                         Standard orientation:                         
 ---------------------------------------------------------------------
 Center     Atomic      Atomic             Coordinates (Angstroms)
 Number     Number       Type             X           Y           Z
 ---------------------------------------------------------------------
      1          8           0        0.000000    0.000000    0.171983
      2          1           0        0.000000    0.725427   -0.458621
      3          1           0        0.628238   -0.362713   -0.458621
      4          1           0       -0.628238   -0.362713   -0.458621
 ---------------------------------------------------------------------
 Rotational constants (GHZ):         317.6314898         279.7215505         279.7215505
 Standard basis: 6-31G(d,p) (6D, 7F)
 There are    20 symmetry adapted cartesian basis functions of A'  symmetry.
 There are    10 symmetry adapted cartesian basis functions of A"  symmetry.
 There are    20 symmetry adapted basis functions of A'  symmetry.
 There are    10 symmetry adapted basis functions of A"  symmetry.
    30 basis functions,    49 primitive gaussians,    30 cartesian basis functions
     5 alpha electrons        5 beta electrons
       nuclear repulsion energy        14.4763934424 Hartrees.
 NAtoms=    4 NActive=    4 NUniq=    2 SFac= 4.00D+00 NAtFMM=   60 NAOKFM=F Big=F
 Integral buffers will be    131072 words long.
 Raffenetti 1 integral format.
 Two-electron integral symmetry is turned on.
 One-electron integrals computed using PRISM.
 NBasis=    30 RedAO= T EigKep=  1.63D-02  NBF=    20    10
 NBsUse=    30 1.00D-06 EigRej= -1.00D+00 NBFU=    20    10
 Initial guess from the checkpoint file:  "/scratch-data/g16-scratch/Gau-328229.chk"
 B after Tr=    -0.000000   -0.000000   -0.000000
         Rot=    1.000000    0.000000   -0.000000   -0.000000 Ang=   0.00 deg.
 Initial guess orbital symmetries:
       Occupied  (A1) (A1) (E) (E) (A1)
       Virtual   (A1) (E) (E) (E) (E) (A1) (A1) (E) (E) (A1) (E)
                 (E) (A1) (E) (E) (A2) (E) (E) (E) (E) (A1) (A1)
                 (E) (E) (A1)
 ExpMin= 1.61D-01 ExpMax= 5.48D+03 ExpMxC= 8.25D+02 IAcc=3 IRadAn=         5 AccDes= 0.00D+00
 Harris functional with IExCor=  205 and IRadAn=       5 diagonalized for initial guess.
 HarFok:  IExCor=  205 AccDes= 0.00D+00 IRadAn=         5 IDoV= 1 UseB2=F ITyADJ=14
 ICtDFT=  3500011 ScaDFX=  1.000000  1.000000  1.000000  1.000000
 FoFCou: FMM=F IPFlag=           0 FMFlag=      100000 FMFlg1=           0
         NFxFlg=           0 DoJE=T BraDBF=F KetDBF=T FulRan=T
         wScrn=  0.000000 ICntrl=       500 IOpCl=  0 I1Cent=   200000004 NGrid=           0
         NMat0=    1 NMatS0=      1 NMatT0=    0 NMatD0=    1 NMtDS0=    0 NMtDT0=    0
 Petite list used in FoFCou.
 Keep R1 ints in memory in symmetry-blocked form, NReq=940861.
 Requested convergence on RMS density matrix=1.00D-08 within 128 cycles.
 Requested convergence on MAX density matrix=1.00D-06.
 Requested convergence on             energy=1.00D-06.
 No special actions if energy rises.
 SCF Done:  E(RHF) =  -76.2400043340     A.U. after    8 cycles
            NFock=  8  Conv=0.31D-08     -V/T= 2.0006
 ExpMin= 1.61D-01 ExpMax= 5.48D+03 ExpMxC= 8.25D+02 IAcc=3 IRadAn=         5 AccDes= 0.00D+00
 HarFok:  IExCor=  205 AccDes= 0.00D+00 IRadAn=         5 IDoV=-2 UseB2=F ITyADJ=14
 ICtDFT= 12500011 ScaDFX=  1.000000  1.000000  1.000000  1.000000
 Range of M.O.s used for correlation:     2    30
 NBasis=    30 NAE=     5 NBE=     5 NFC=     1 NFV=     0
 NROrb=     29 NOA=     4 NOB=     4 NVA=    25 NVB=    25
 Fully in-core method, ICMem=     6273201.
 JobTyp=1 Pass  1 fully in-core, NPsUse=  4.
 Spin components of T(2) and E(2):
     alpha-alpha T2 =       0.6367780460D-02 E2=     -0.2498765412D-01
     alpha-beta  T2 =       0.3881328832D-01 E2=     -0.1540171453D+00
     beta-beta   T2 =       0.6367780460D-02 E2=     -0.2498765412D-01
 ANorm=    0.1025450559D+01
 E2 =    -0.2039924535D+00 EUMP2 =    -0.76443996787574D+02
 Variable Step   Value    
 -------- ---- -----------
     2       5    2.268928
 ---------------------------------------------------------------------------------------------------
                            Z-MATRIX (ANGSTROMS AND DEGREES)
   CD    Cent   Atom    N1       Length/X        N2       Alpha/Y        N3        Beta/Z          J
 ---------------------------------------------------------------------------------------------------
      1      1  O 
      2         X        1   0.961200(     1)
      3      2  H        1   0.961200(     2)      2  130.000(     5)
      4      3  H        1   0.961200(     3)      2  130.000(     6)      3  120.000(     8)      0
      5      4  H        1   0.961200(     4)      2  130.000(     7)      3 -120.000(     9)      0
 ---------------------------------------------------------------------------------------------------
                         Z-Matrix orientation:                         
 ---------------------------------------------------------------------
 Center     Atomic      Atomic             Coordinates (Angstroms)
 Number     Number       Type             X           Y           Z
 ---------------------------------------------------------------------
      1          8           0        0.000000    0.000000    0.000000
      2         -1           0        0.000000    0.000000    0.961200
      3          1           0        0.736322    0.000000   -0.617847
      4          1           0       -0.368161   -0.637673   -0.617847
      5          1           0       -0.368161    0.637673   -0.617847
 ---------------------------------------------------------------------
                    Distance matrix (angstroms):
                    1          2          3          4          5
     1  O    0.000000
     2  X    0.961200   0.000000
     3  H    0.961200   1.742286   0.000000
     4  H    0.961200   1.742286   1.275347   0.000000
     5  H    0.961200   1.742286   1.275347   1.275347   0.000000
 Stoichiometry    H3O(1+)
 Framework group  C3V[C3(O),3SGV(H)]
 Deg. of freedom     2
 Full point group                 C3V     NOp   6
 Largest Abelian subgroup         CS      NOp   2
 Largest concise Abelian subgroup CS      NOp   2
                         Standard orientation:                         
 ---------------------------------------------------------------------
 Center     Atomic      Atomic             Coordinates (Angstroms)
 Number     Number       Type             X           Y           Z
 ---------------------------------------------------------------------
      1          8           0        0.000000    0.000000    0.168504
      2          1           0        0.000000    0.736322   -0.449344
      3          1           0        0.637673   -0.368161   -0.449344
      4          1           0       -0.637673   -0.368161   -0.449344
 ---------------------------------------------------------------------
 Rotational constants (GHZ):         308.3012918         282.2871773         282.2871773
 Standard basis: 6-31G(d,p) (6D, 7F)
 There are    20 symmetry adapted cartesian basis functions of A'  symmetry.
 There are    10 symmetry adapted cartesian basis functions of A"  symmetry.
 There are    20 symmetry adapted basis functions of A'  symmetry.
 There are    10 symmetry adapted basis functions of A"  symmetry.
    30 basis functions,    49 primitive gaussians,    30 cartesian basis functions
     5 alpha electrons        5 beta electrons
       nuclear repulsion energy        14.4576982284 Hartrees.
 NAtoms=    4 NActive=    4 NUniq=    2 SFac= 4.00D+00 NAtFMM=   60 NAOKFM=F Big=F
 Integral buffers will be    131072 words long.
 Raffenetti 1 integral format.
 Two-electron integral symmetry is turned on.
 One-electron integrals computed using PRISM.
 NBasis=    30 RedAO= T EigKep=  1.64D-02  NBF=    20    10
 NBsUse=    30 1.00D-06 EigRej= -1.00D+00 NBFU=    20    10
 Initial guess from the checkpoint file:  "/scratch-data/g16-scratch/Gau-328229.chk"
 B after Tr=    -0.000000   -0.000000   -0.000000
         Rot=    1.000000   -0.000000    0.000000    0.000000 Ang=   0.00 deg.
 Initial guess orbital symmetries:
       Occupied  (A1) (A1) (E) (E) (A1)
       Virtual   (A1) (E) (E) (E) (E) (A1) (A1) (E) (E) (A1) (E)
                 (E) (A1) (E) (E) (A2) (E) (E) (E) (E) (A1) (A1)
                 (E) (E) (A1)
 ExpMin= 1.61D-01 ExpMax= 5.48D+03 ExpMxC= 8.25D+02 IAcc=3 IRadAn=         5 AccDes= 0.00D+00
 Harris functional with IExCor=  205 and IRadAn=       5 diagonalized for initial guess.
 HarFok:  IExCor=  205 AccDes= 0.00D+00 IRadAn=         5 IDoV= 1 UseB2=F ITyADJ=14
 ICtDFT=  3500011 ScaDFX=  1.000000  1.000000  1.000000  1.000000
 FoFCou: FMM=F IPFlag=           0 FMFlag=      100000 FMFlg1=           0
         NFxFlg=           0 DoJE=T BraDBF=F KetDBF=T FulRan=T
         wScrn=  0.000000 ICntrl=       500 IOpCl=  0 I1Cent=   200000004 NGrid=           0
         NMat0=    1 NMatS0=      1 NMatT0=    0 NMatD0=    1 NMtDS0=    0 NMtDT0=    0
 Petite list used in FoFCou.
 Keep R1 ints in memory in symmetry-blocked form, NReq=940861.
 Requested convergence on RMS density matrix=1.00D-08 within 128 cycles.
 Requested convergence on MAX density matrix=1.00D-06.
 Requested convergence on             energy=1.00D-06.
 No special actions if energy rises.
 SCF Done:  E(RHF) =  -76.2466909375     A.U. after    8 cycles
            NFock=  8  Conv=0.30D-08     -V/T= 2.0007
 ExpMin= 1.61D-01 ExpMax= 5.48D+03 ExpMxC= 8.25D+02 IAcc=3 IRadAn=         5 AccDes= 0.00D+00
 HarFok:  IExCor=  205 AccDes= 0.00D+00 IRadAn=         5 IDoV=-2 UseB2=F ITyADJ=14
 ICtDFT= 12500011 ScaDFX=  1.000000  1.000000  1.000000  1.000000
 Range of M.O.s used for correlation:     2    30
 NBasis=    30 NAE=     5 NBE=     5 NFC=     1 NFV=     0
 NROrb=     29 NOA=     4 NOB=     4 NVA=    25 NVB=    25
 Fully in-core method, ICMem=     6273201.
 JobTyp=1 Pass  1 fully in-core, NPsUse=  4.
 Spin components of T(2) and E(2):
     alpha-alpha T2 =       0.6317394247D-02 E2=     -0.2486351848D-01
     alpha-beta  T2 =       0.3862708555D-01 E2=     -0.1536313932D+00
     beta-beta   T2 =       0.6317394247D-02 E2=     -0.2486351848D-01
 ANorm=    0.1025310623D+01
 E2 =    -0.2033584302D+00 EUMP2 =    -0.76450049367672D+02
 Variable Step   Value    
 -------- ---- -----------
     2       6    2.251475
 ---------------------------------------------------------------------------------------------------
                            Z-MATRIX (ANGSTROMS AND DEGREES)
   CD    Cent   Atom    N1       Length/X        N2       Alpha/Y        N3        Beta/Z          J
 ---------------------------------------------------------------------------------------------------
      1      1  O 
      2         X        1   0.961200(     1)
      3      2  H        1   0.961200(     2)      2  129.000(     5)
      4      3  H        1   0.961200(     3)      2  129.000(     6)      3  120.000(     8)      0
      5      4  H        1   0.961200(     4)      2  129.000(     7)      3 -120.000(     9)      0
 ---------------------------------------------------------------------------------------------------
                         Z-Matrix orientation:                         
 ---------------------------------------------------------------------
 Center     Atomic      Atomic             Coordinates (Angstroms)
 Number     Number       Type             X           Y           Z
 ---------------------------------------------------------------------
      1          8           0        0.000000    0.000000    0.000000
      2         -1           0        0.000000    0.000000    0.961200
      3          1           0        0.746993    0.000000   -0.604903
      4          1           0       -0.373496   -0.646915   -0.604903
      5          1           0       -0.373496    0.646915   -0.604903
 ---------------------------------------------------------------------
                    Distance matrix (angstroms):
                    1          2          3          4          5
     1  O    0.000000
     2  X    0.961200   0.000000
     3  H    0.961200   1.735130   0.000000
     4  H    0.961200   1.735130   1.293829   0.000000
     5  H    0.961200   1.735130   1.293829   1.293829   0.000000
 Stoichiometry    H3O(1+)
 Framework group  C3V[C3(O),3SGV(H)]
 Deg. of freedom     2
 Full point group                 C3V     NOp   6
 Largest Abelian subgroup         CS      NOp   2
 Largest concise Abelian subgroup CS      NOp   2
                         Standard orientation:                         
 ---------------------------------------------------------------------
 Center     Atomic      Atomic             Coordinates (Angstroms)
 Number     Number       Type             X           Y           Z
 ---------------------------------------------------------------------
      1          8           0        0.000000    0.000000    0.164973
      2          1           0        0.000000    0.746993   -0.439929
      3          1           0        0.646915   -0.373496   -0.439929
      4          1           0       -0.646915   -0.373496   -0.439929
 ---------------------------------------------------------------------
 Rotational constants (GHZ):         299.5560454         284.8841205         284.8841205
 Standard basis: 6-31G(d,p) (6D, 7F)
 There are    20 symmetry adapted cartesian basis functions of A'  symmetry.
 There are    10 symmetry adapted cartesian basis functions of A"  symmetry.
 There are    20 symmetry adapted basis functions of A'  symmetry.
 There are    10 symmetry adapted basis functions of A"  symmetry.
    30 basis functions,    49 primitive gaussians,    30 cartesian basis functions
     5 alpha electrons        5 beta electrons
       nuclear repulsion energy        14.4399165064 Hartrees.
 NAtoms=    4 NActive=    4 NUniq=    2 SFac= 4.00D+00 NAtFMM=   60 NAOKFM=F Big=F
 Integral buffers will be    131072 words long.
 Raffenetti 1 integral format.
 Two-electron integral symmetry is turned on.
 One-electron integrals computed using PRISM.
 NBasis=    30 RedAO= T EigKep=  1.64D-02  NBF=    20    10
 NBsUse=    30 1.00D-06 EigRej= -1.00D+00 NBFU=    20    10
 Initial guess from the checkpoint file:  "/scratch-data/g16-scratch/Gau-328229.chk"
 B after Tr=     0.000000    0.000000   -0.000000
         Rot=    1.000000    0.000000   -0.000000   -0.000000 Ang=   0.00 deg.
 Initial guess orbital symmetries:
       Occupied  (A1) (A1) (E) (E) (A1)
       Virtual   (A1) (E) (E) (E) (E) (A1) (A1) (E) (E) (A1) (E)
                 (E) (A1) (E) (E) (A2) (E) (E) (E) (E) (A1) (A1)
                 (E) (E) (A1)
 ExpMin= 1.61D-01 ExpMax= 5.48D+03 ExpMxC= 8.25D+02 IAcc=3 IRadAn=         5 AccDes= 0.00D+00
 Harris functional with IExCor=  205 and IRadAn=       5 diagonalized for initial guess.
 HarFok:  IExCor=  205 AccDes= 0.00D+00 IRadAn=         5 IDoV= 1 UseB2=F ITyADJ=14
 ICtDFT=  3500011 ScaDFX=  1.000000  1.000000  1.000000  1.000000
 FoFCou: FMM=F IPFlag=           0 FMFlag=      100000 FMFlg1=           0
         NFxFlg=           0 DoJE=T BraDBF=F KetDBF=T FulRan=T
         wScrn=  0.000000 ICntrl=       500 IOpCl=  0 I1Cent=   200000004 NGrid=           0
         NMat0=    1 NMatS0=      1 NMatT0=    0 NMatD0=    1 NMtDS0=    0 NMtDT0=    0
 Petite list used in FoFCou.
 Keep R1 ints in memory in symmetry-blocked form, NReq=940861.
 Requested convergence on RMS density matrix=1.00D-08 within 128 cycles.
 Requested convergence on MAX density matrix=1.00D-06.
 Requested convergence on             energy=1.00D-06.
 No special actions if energy rises.
 SCF Done:  E(RHF) =  -76.2529359137     A.U. after    8 cycles
            NFock=  8  Conv=0.30D-08     -V/T= 2.0009
 ExpMin= 1.61D-01 ExpMax= 5.48D+03 ExpMxC= 8.25D+02 IAcc=3 IRadAn=         5 AccDes= 0.00D+00
 HarFok:  IExCor=  205 AccDes= 0.00D+00 IRadAn=         5 IDoV=-2 UseB2=F ITyADJ=14
 ICtDFT= 12500011 ScaDFX=  1.000000  1.000000  1.000000  1.000000
 Range of M.O.s used for correlation:     2    30
 NBasis=    30 NAE=     5 NBE=     5 NFC=     1 NFV=     0
 NROrb=     29 NOA=     4 NOB=     4 NVA=    25 NVB=    25
 Fully in-core method, ICMem=     6273201.
 JobTyp=1 Pass  1 fully in-core, NPsUse=  4.
 Spin components of T(2) and E(2):
     alpha-alpha T2 =       0.6270189253D-02 E2=     -0.2474706287D-01
     alpha-beta  T2 =       0.3844697138D-01 E2=     -0.1532572069D+00
     beta-beta   T2 =       0.6270189253D-02 E2=     -0.2474706287D-01
 ANorm=    0.1025176741D+01
 E2 =    -0.2027513327D+00 EUMP2 =    -0.76455687246330D+02
 Variable Step   Value    
 -------- ---- -----------
     2       7    2.234021
 ---------------------------------------------------------------------------------------------------
                            Z-MATRIX (ANGSTROMS AND DEGREES)
   CD    Cent   Atom    N1       Length/X        N2       Alpha/Y        N3        Beta/Z          J
 ---------------------------------------------------------------------------------------------------
      1      1  O 
      2         X        1   0.961200(     1)
      3      2  H        1   0.961200(     2)      2  128.000(     5)
      4      3  H        1   0.961200(     3)      2  128.000(     6)      3  120.000(     8)      0
      5      4  H        1   0.961200(     4)      2  128.000(     7)      3 -120.000(     9)      0
 ---------------------------------------------------------------------------------------------------
                         Z-Matrix orientation:                         
 ---------------------------------------------------------------------
 Center     Atomic      Atomic             Coordinates (Angstroms)
 Number     Number       Type             X           Y           Z
 ---------------------------------------------------------------------
      1          8           0        0.000000    0.000000    0.000000
      2         -1           0        0.000000    0.000000    0.961200
      3          1           0        0.757436    0.000000   -0.591774
      4          1           0       -0.378718   -0.655959   -0.591774
      5          1           0       -0.378718    0.655959   -0.591774
 ---------------------------------------------------------------------
                    Distance matrix (angstroms):
                    1          2          3          4          5
     1  O    0.000000
     2  X    0.961200   0.000000
     3  H    0.961200   1.727842   0.000000
     4  H    0.961200   1.727842   1.311918   0.000000
     5  H    0.961200   1.727842   1.311918   1.311918   0.000000
 Stoichiometry    H3O(1+)
 Framework group  C3V[C3(O),3SGV(H)]
 Deg. of freedom     2
 Full point group                 C3V     NOp   6
 Largest Abelian subgroup         CS      NOp   2
 Largest concise Abelian subgroup CS      NOp   2
                         Standard orientation:                         
 ---------------------------------------------------------------------
 Center     Atomic      Atomic             Coordinates (Angstroms)
 Number     Number       Type             X           Y           Z
 ---------------------------------------------------------------------
      1          8           0        0.000000    0.000000    0.161393
      2          1           0        0.000000    0.757436   -0.430381
      3          1           0        0.655959   -0.378718   -0.430381
      4          1           0       -0.655959   -0.378718   -0.430381
 ---------------------------------------------------------------------
 Rotational constants (GHZ):         291.3526612         287.5095535         287.5095535
 Standard basis: 6-31G(d,p) (6D, 7F)
 There are    20 symmetry adapted cartesian basis functions of A'  symmetry.
 There are    10 symmetry adapted cartesian basis functions of A"  symmetry.
 There are    20 symmetry adapted basis functions of A'  symmetry.
 There are    10 symmetry adapted basis functions of A"  symmetry.
    30 basis functions,    49 primitive gaussians,    30 cartesian basis functions
     5 alpha electrons        5 beta electrons
       nuclear repulsion energy        14.4229990649 Hartrees.
 NAtoms=    4 NActive=    4 NUniq=    2 SFac= 4.00D+00 NAtFMM=   60 NAOKFM=F Big=F
 Integral buffers will be    131072 words long.
 Raffenetti 1 integral format.
 Two-electron integral symmetry is turned on.
 One-electron integrals computed using PRISM.
 NBasis=    30 RedAO= T EigKep=  1.65D-02  NBF=    20    10
 NBsUse=    30 1.00D-06 EigRej= -1.00D+00 NBFU=    20    10
 Initial guess from the checkpoint file:  "/scratch-data/g16-scratch/Gau-328229.chk"
 B after Tr=    -0.000000    0.000000    0.000000
         Rot=    1.000000   -0.000000    0.000000    0.000000 Ang=   0.00 deg.
 Initial guess orbital symmetries:
       Occupied  (A1) (A1) (E) (E) (A1)
       Virtual   (A1) (E) (E) (E) (E) (A1) (A1) (E) (E) (A1) (E)
                 (E) (A1) (E) (E) (A2) (E) (E) (E) (E) (A1) (A1)
                 (E) (E) (A1)
 ExpMin= 1.61D-01 ExpMax= 5.48D+03 ExpMxC= 8.25D+02 IAcc=3 IRadAn=         5 AccDes= 0.00D+00
 Harris functional with IExCor=  205 and IRadAn=       5 diagonalized for initial guess.
 HarFok:  IExCor=  205 AccDes= 0.00D+00 IRadAn=         5 IDoV= 1 UseB2=F ITyADJ=14
 ICtDFT=  3500011 ScaDFX=  1.000000  1.000000  1.000000  1.000000
 FoFCou: FMM=F IPFlag=           0 FMFlag=      100000 FMFlg1=           0
         NFxFlg=           0 DoJE=T BraDBF=F KetDBF=T FulRan=T
         wScrn=  0.000000 ICntrl=       500 IOpCl=  0 I1Cent=   200000004 NGrid=           0
         NMat0=    1 NMatS0=      1 NMatT0=    0 NMatD0=    1 NMtDS0=    0 NMtDT0=    0
 Petite list used in FoFCou.
 Keep R1 ints in memory in symmetry-blocked form, NReq=940861.
 Requested convergence on RMS density matrix=1.00D-08 within 128 cycles.
 Requested convergence on MAX density matrix=1.00D-06.
 Requested convergence on             energy=1.00D-06.
 No special actions if energy rises.
 SCF Done:  E(RHF) =  -76.2587573359     A.U. after    8 cycles
            NFock=  8  Conv=0.30D-08     -V/T= 2.0010
 ExpMin= 1.61D-01 ExpMax= 5.48D+03 ExpMxC= 8.25D+02 IAcc=3 IRadAn=         5 AccDes= 0.00D+00
 HarFok:  IExCor=  205 AccDes= 0.00D+00 IRadAn=         5 IDoV=-2 UseB2=F ITyADJ=14
 ICtDFT= 12500011 ScaDFX=  1.000000  1.000000  1.000000  1.000000
 Range of M.O.s used for correlation:     2    30
 NBasis=    30 NAE=     5 NBE=     5 NFC=     1 NFV=     0
 NROrb=     29 NOA=     4 NOB=     4 NVA=    25 NVB=    25
 Fully in-core method, ICMem=     6273201.
 JobTyp=1 Pass  1 fully in-core, NPsUse=  4.
 Spin components of T(2) and E(2):
     alpha-alpha T2 =       0.6226093638D-02 E2=     -0.2463824309D-01
     alpha-beta  T2 =       0.3827311755D-01 E2=     -0.1528952277D+00
     beta-beta   T2 =       0.6226093638D-02 E2=     -0.2463824309D-01
 ANorm=    0.1025048928D+01
 E2 =    -0.2021717139D+00 EUMP2 =    -0.76460929049796D+02
 Variable Step   Value    
 -------- ---- -----------
     2       8    2.216568
 ---------------------------------------------------------------------------------------------------
                            Z-MATRIX (ANGSTROMS AND DEGREES)
   CD    Cent   Atom    N1       Length/X        N2       Alpha/Y        N3        Beta/Z          J
 ---------------------------------------------------------------------------------------------------
      1      1  O 
      2         X        1   0.961200(     1)
      3      2  H        1   0.961200(     2)      2  127.000(     5)
      4      3  H        1   0.961200(     3)      2  127.000(     6)      3  120.000(     8)      0
      5      4  H        1   0.961200(     4)      2  127.000(     7)      3 -120.000(     9)      0
 ---------------------------------------------------------------------------------------------------
                         Z-Matrix orientation:                         
 ---------------------------------------------------------------------
 Center     Atomic      Atomic             Coordinates (Angstroms)
 Number     Number       Type             X           Y           Z
 ---------------------------------------------------------------------
      1          8           0        0.000000    0.000000    0.000000
      2         -1           0        0.000000    0.000000    0.961200
      3          1           0        0.767648    0.000000   -0.578465
      4          1           0       -0.383824   -0.664803   -0.578465
      5          1           0       -0.383824    0.664803   -0.578465
 ---------------------------------------------------------------------
                    Distance matrix (angstroms):
                    1          2          3          4          5
     1  O    0.000000
     2  X    0.961200   0.000000
     3  H    0.961200   1.720422   0.000000
     4  H    0.961200   1.720422   1.329606   0.000000
     5  H    0.961200   1.720422   1.329606   1.329606   0.000000
 Stoichiometry    H3O(1+)
 Framework group  C3V[C3(O),3SGV(H)]
 Deg. of freedom     2
 Full point group                 C3V     NOp   6
 Largest Abelian subgroup         CS      NOp   2
 Largest concise Abelian subgroup CS      NOp   2
                         Standard orientation:                         
 ---------------------------------------------------------------------
 Center     Atomic      Atomic             Coordinates (Angstroms)
 Number     Number       Type             X           Y           Z
 ---------------------------------------------------------------------
      1          8           0        0.000000    0.000000    0.157763
      2          1           0        0.000000    0.767648   -0.420702
      3          1           0        0.664803   -0.383824   -0.420702
      4          1           0       -0.664803   -0.383824   -0.420702
 ---------------------------------------------------------------------
 Rotational constants (GHZ):         290.1604375         290.1604375         283.6521270
 Standard basis: 6-31G(d,p) (6D, 7F)
 There are    20 symmetry adapted cartesian basis functions of A'  symmetry.
 There are    10 symmetry adapted cartesian basis functions of A"  symmetry.
 There are    20 symmetry adapted basis functions of A'  symmetry.
 There are    10 symmetry adapted basis functions of A"  symmetry.
    30 basis functions,    49 primitive gaussians,    30 cartesian basis functions
     5 alpha electrons        5 beta electrons
       nuclear repulsion energy        14.4069005350 Hartrees.
 NAtoms=    4 NActive=    4 NUniq=    2 SFac= 4.00D+00 NAtFMM=   60 NAOKFM=F Big=F
 Integral buffers will be    131072 words long.
 Raffenetti 1 integral format.
 Two-electron integral symmetry is turned on.
 One-electron integrals computed using PRISM.
 NBasis=    30 RedAO= T EigKep=  1.66D-02  NBF=    20    10
 NBsUse=    30 1.00D-06 EigRej= -1.00D+00 NBFU=    20    10
 Initial guess from the checkpoint file:  "/scratch-data/g16-scratch/Gau-328229.chk"
 B after Tr=     0.000000   -0.000000   -0.000000
         Rot=    1.000000   -0.000000    0.000000   -0.000000 Ang=   0.00 deg.
 Initial guess orbital symmetries:
       Occupied  (A1) (A1) (E) (E) (A1)
       Virtual   (A1) (E) (E) (E) (E) (A1) (A1) (E) (E) (A1) (E)
                 (E) (A1) (E) (E) (A2) (E) (E) (E) (E) (A1) (A1)
                 (E) (E) (A1)
 ExpMin= 1.61D-01 ExpMax= 5.48D+03 ExpMxC= 8.25D+02 IAcc=3 IRadAn=         5 AccDes= 0.00D+00
 Harris functional with IExCor=  205 and IRadAn=       5 diagonalized for initial guess.
 HarFok:  IExCor=  205 AccDes= 0.00D+00 IRadAn=         5 IDoV= 1 UseB2=F ITyADJ=14
 ICtDFT=  3500011 ScaDFX=  1.000000  1.000000  1.000000  1.000000
 FoFCou: FMM=F IPFlag=           0 FMFlag=      100000 FMFlg1=           0
         NFxFlg=           0 DoJE=T BraDBF=F KetDBF=T FulRan=T
         wScrn=  0.000000 ICntrl=       500 IOpCl=  0 I1Cent=   200000004 NGrid=           0
         NMat0=    1 NMatS0=      1 NMatT0=    0 NMatD0=    1 NMtDS0=    0 NMtDT0=    0
 Petite list used in FoFCou.
 Keep R1 ints in memory in symmetry-blocked form, NReq=940861.
 Requested convergence on RMS density matrix=1.00D-08 within 128 cycles.
 Requested convergence on MAX density matrix=1.00D-06.
 Requested convergence on             energy=1.00D-06.
 No special actions if energy rises.
 SCF Done:  E(RHF) =  -76.2641722729     A.U. after    8 cycles
            NFock=  8  Conv=0.29D-08     -V/T= 2.0012
 ExpMin= 1.61D-01 ExpMax= 5.48D+03 ExpMxC= 8.25D+02 IAcc=3 IRadAn=         5 AccDes= 0.00D+00
 HarFok:  IExCor=  205 AccDes= 0.00D+00 IRadAn=         5 IDoV=-2 UseB2=F ITyADJ=14
 ICtDFT= 12500011 ScaDFX=  1.000000  1.000000  1.000000  1.000000
 Range of M.O.s used for correlation:     2    30
 NBasis=    30 NAE=     5 NBE=     5 NFC=     1 NFV=     0
 NROrb=     29 NOA=     4 NOB=     4 NVA=    25 NVB=    25
 Fully in-core method, ICMem=     6273201.
 JobTyp=1 Pass  1 fully in-core, NPsUse=  4.
 Spin components of T(2) and E(2):
     alpha-alpha T2 =       0.6185010582D-02 E2=     -0.2453692351D-01
     alpha-beta  T2 =       0.3810560237D-01 E2=     -0.1525458150D+00
     beta-beta   T2 =       0.6185010582D-02 E2=     -0.2453692351D-01
 ANorm=    0.1024927131D+01
 E2 =    -0.2016196620D+00 EUMP2 =    -0.76465791934919D+02
 Variable Step   Value    
 -------- ---- -----------
     2       9    2.199115
 ---------------------------------------------------------------------------------------------------
                            Z-MATRIX (ANGSTROMS AND DEGREES)
   CD    Cent   Atom    N1       Length/X        N2       Alpha/Y        N3        Beta/Z          J
 ---------------------------------------------------------------------------------------------------
      1      1  O 
      2         X        1   0.961200(     1)
      3      2  H        1   0.961200(     2)      2  126.000(     5)
      4      3  H        1   0.961200(     3)      2  126.000(     6)      3  120.000(     8)      0
      5      4  H        1   0.961200(     4)      2  126.000(     7)      3 -120.000(     9)      0
 ---------------------------------------------------------------------------------------------------
                         Z-Matrix orientation:                         
 ---------------------------------------------------------------------
 Center     Atomic      Atomic             Coordinates (Angstroms)
 Number     Number       Type             X           Y           Z
 ---------------------------------------------------------------------
      1          8           0        0.000000    0.000000    0.000000
      2         -1           0        0.000000    0.000000    0.961200
      3          1           0        0.777627    0.000000   -0.564979
      4          1           0       -0.388814   -0.673445   -0.564979
      5          1           0       -0.388814    0.673445   -0.564979
 ---------------------------------------------------------------------
                    Distance matrix (angstroms):
                    1          2          3          4          5
     1  O    0.000000
     2  X    0.961200   0.000000
     3  H    0.961200   1.712871   0.000000
     4  H    0.961200   1.712871   1.346890   0.000000
     5  H    0.961200   1.712871   1.346890   1.346890   0.000000
 Stoichiometry    H3O(1+)
 Framework group  C3V[C3(O),3SGV(H)]
 Deg. of freedom     2
 Full point group                 C3V     NOp   6
 Largest Abelian subgroup         CS      NOp   2
 Largest concise Abelian subgroup CS      NOp   2
                         Standard orientation:                         
 ---------------------------------------------------------------------
 Center     Atomic      Atomic             Coordinates (Angstroms)
 Number     Number       Type             X           Y           Z
 ---------------------------------------------------------------------
      1          8           0        0.000000    0.000000    0.154085
      2          1           0        0.000000    0.777627   -0.410894
      3          1           0        0.673445   -0.388814   -0.410894
      4          1           0       -0.673445   -0.388814   -0.410894
 ---------------------------------------------------------------------
 Rotational constants (GHZ):         292.8335164         292.8335164         276.4190616
 Standard basis: 6-31G(d,p) (6D, 7F)
 There are    20 symmetry adapted cartesian basis functions of A'  symmetry.
 There are    10 symmetry adapted cartesian basis functions of A"  symmetry.
 There are    20 symmetry adapted basis functions of A'  symmetry.
 There are    10 symmetry adapted basis functions of A"  symmetry.
    30 basis functions,    49 primitive gaussians,    30 cartesian basis functions
     5 alpha electrons        5 beta electrons
       nuclear repulsion energy        14.3915790383 Hartrees.
 NAtoms=    4 NActive=    4 NUniq=    2 SFac= 4.00D+00 NAtFMM=   60 NAOKFM=F Big=F
 Integral buffers will be    131072 words long.
 Raffenetti 1 integral format.
 Two-electron integral symmetry is turned on.
 One-electron integrals computed using PRISM.
 NBasis=    30 RedAO= T EigKep=  1.67D-02  NBF=    20    10
 NBsUse=    30 1.00D-06 EigRej= -1.00D+00 NBFU=    20    10
 Initial guess from the checkpoint file:  "/scratch-data/g16-scratch/Gau-328229.chk"
 B after Tr=    -0.000000    0.000000    0.000000
         Rot=    1.000000    0.000000    0.000000    0.000000 Ang=   0.00 deg.
 Initial guess orbital symmetries:
       Occupied  (A1) (A1) (E) (E) (A1)
       Virtual   (A1) (E) (E) (E) (E) (A1) (A1) (E) (E) (A1) (E)
                 (E) (A1) (E) (E) (A2) (E) (E) (E) (E) (A1) (A1)
                 (E) (E) (A1)
 ExpMin= 1.61D-01 ExpMax= 5.48D+03 ExpMxC= 8.25D+02 IAcc=3 IRadAn=         5 AccDes= 0.00D+00
 Harris functional with IExCor=  205 and IRadAn=       5 diagonalized for initial guess.
 HarFok:  IExCor=  205 AccDes= 0.00D+00 IRadAn=         5 IDoV= 1 UseB2=F ITyADJ=14
 ICtDFT=  3500011 ScaDFX=  1.000000  1.000000  1.000000  1.000000
 FoFCou: FMM=F IPFlag=           0 FMFlag=      100000 FMFlg1=           0
         NFxFlg=           0 DoJE=T BraDBF=F KetDBF=T FulRan=T
         wScrn=  0.000000 ICntrl=       500 IOpCl=  0 I1Cent=   200000004 NGrid=           0
         NMat0=    1 NMatS0=      1 NMatT0=    0 NMatD0=    1 NMtDS0=    0 NMtDT0=    0
 Petite list used in FoFCou.
 Keep R1 ints in memory in symmetry-blocked form, NReq=940861.
 Requested convergence on RMS density matrix=1.00D-08 within 128 cycles.
 Requested convergence on MAX density matrix=1.00D-06.
 Requested convergence on             energy=1.00D-06.
 No special actions if energy rises.
 SCF Done:  E(RHF) =  -76.2691969746     A.U. after    8 cycles
            NFock=  8  Conv=0.29D-08     -V/T= 2.0013
 ExpMin= 1.61D-01 ExpMax= 5.48D+03 ExpMxC= 8.25D+02 IAcc=3 IRadAn=         5 AccDes= 0.00D+00
 HarFok:  IExCor=  205 AccDes= 0.00D+00 IRadAn=         5 IDoV=-2 UseB2=F ITyADJ=14
 ICtDFT= 12500011 ScaDFX=  1.000000  1.000000  1.000000  1.000000
 Range of M.O.s used for correlation:     2    30
 NBasis=    30 NAE=     5 NBE=     5 NFC=     1 NFV=     0
 NROrb=     29 NOA=     4 NOB=     4 NVA=    25 NVB=    25
 Fully in-core method, ICMem=     6273201.
 JobTyp=1 Pass  1 fully in-core, NPsUse=  4.
 Spin components of T(2) and E(2):
     alpha-alpha T2 =       0.6146826445D-02 E2=     -0.2444290171D-01
     alpha-beta  T2 =       0.3794443319D-01 E2=     -0.1522091080D+00
     beta-beta   T2 =       0.6146826445D-02 E2=     -0.2444290171D-01
 ANorm=    0.1024811244D+01
 E2 =    -0.2010949114D+00 EUMP2 =    -0.76470291886041D+02
 Variable Step   Value    
 -------- ---- -----------
     2      10    2.181662
 ---------------------------------------------------------------------------------------------------
                            Z-MATRIX (ANGSTROMS AND DEGREES)
   CD    Cent   Atom    N1       Length/X        N2       Alpha/Y        N3        Beta/Z          J
 ---------------------------------------------------------------------------------------------------
      1      1  O 
      2         X        1   0.961200(     1)
      3      2  H        1   0.961200(     2)      2  125.000(     5)
      4      3  H        1   0.961200(     3)      2  125.000(     6)      3  120.000(     8)      0
      5      4  H        1   0.961200(     4)      2  125.000(     7)      3 -120.000(     9)      0
 ---------------------------------------------------------------------------------------------------
                         Z-Matrix orientation:                         
 ---------------------------------------------------------------------
 Center     Atomic      Atomic             Coordinates (Angstroms)
 Number     Number       Type             X           Y           Z
 ---------------------------------------------------------------------
      1          8           0        0.000000    0.000000    0.000000
      2         -1           0        0.000000    0.000000    0.961200
      3          1           0        0.787369    0.000000   -0.551322
      4          1           0       -0.393684   -0.681882   -0.551322
      5          1           0       -0.393684    0.681882   -0.551322
 ---------------------------------------------------------------------
                    Distance matrix (angstroms):
                    1          2          3          4          5
     1  O    0.000000
     2  X    0.961200   0.000000
     3  H    0.961200   1.705190   0.000000
     4  H    0.961200   1.705190   1.363763   0.000000
     5  H    0.961200   1.705190   1.363763   1.363763   0.000000
 Stoichiometry    H3O(1+)
 Framework group  C3V[C3(O),3SGV(H)]
 Deg. of freedom     2
 Full point group                 C3V     NOp   6
 Largest Abelian subgroup         CS      NOp   2
 Largest concise Abelian subgroup CS      NOp   2
                         Standard orientation:                         
 ---------------------------------------------------------------------
 Center     Atomic      Atomic             Coordinates (Angstroms)
 Number     Number       Type             X           Y           Z
 ---------------------------------------------------------------------
      1          8           0        0.000000    0.000000    0.150360
      2          1           0        0.000000    0.787369   -0.400961
      3          1           0        0.681882   -0.393684   -0.400961
      4          1           0       -0.681882   -0.393684   -0.400961
 ---------------------------------------------------------------------
 Rotational constants (GHZ):         295.5253116         295.5253116         269.6213250
 Standard basis: 6-31G(d,p) (6D, 7F)
 There are    20 symmetry adapted cartesian basis functions of A'  symmetry.
 There are    10 symmetry adapted cartesian basis functions of A"  symmetry.
 There are    20 symmetry adapted basis functions of A'  symmetry.
 There are    10 symmetry adapted basis functions of A"  symmetry.
    30 basis functions,    49 primitive gaussians,    30 cartesian basis functions
     5 alpha electrons        5 beta electrons
       nuclear repulsion energy        14.3769958755 Hartrees.
 NAtoms=    4 NActive=    4 NUniq=    2 SFac= 4.00D+00 NAtFMM=   60 NAOKFM=F Big=F
 Integral buffers will be    131072 words long.
 Raffenetti 1 integral format.
 Two-electron integral symmetry is turned on.
 One-electron integrals computed using PRISM.
 NBasis=    30 RedAO= T EigKep=  1.68D-02  NBF=    20    10
 NBsUse=    30 1.00D-06 EigRej= -1.00D+00 NBFU=    20    10
 Initial guess from the checkpoint file:  "/scratch-data/g16-scratch/Gau-328229.chk"
 B after Tr=     0.000000   -0.000000   -0.000000
         Rot=    1.000000    0.000000   -0.000000   -0.000000 Ang=   0.00 deg.
 Initial guess orbital symmetries:
       Occupied  (A1) (A1) (E) (E) (A1)
       Virtual   (A1) (E) (E) (E) (E) (A1) (A1) (E) (E) (A1) (E)
                 (E) (A1) (E) (E) (A2) (E) (E) (E) (E) (A1) (A1)
                 (E) (E) (A1)
 ExpMin= 1.61D-01 ExpMax= 5.48D+03 ExpMxC= 8.25D+02 IAcc=3 IRadAn=         5 AccDes= 0.00D+00
 Harris functional with IExCor=  205 and IRadAn=       5 diagonalized for initial guess.
 HarFok:  IExCor=  205 AccDes= 0.00D+00 IRadAn=         5 IDoV= 1 UseB2=F ITyADJ=14
 ICtDFT=  3500011 ScaDFX=  1.000000  1.000000  1.000000  1.000000
 FoFCou: FMM=F IPFlag=           0 FMFlag=      100000 FMFlg1=           0
         NFxFlg=           0 DoJE=T BraDBF=F KetDBF=T FulRan=T
         wScrn=  0.000000 ICntrl=       500 IOpCl=  0 I1Cent=   200000004 NGrid=           0
         NMat0=    1 NMatS0=      1 NMatT0=    0 NMatD0=    1 NMtDS0=    0 NMtDT0=    0
 Petite list used in FoFCou.
 Keep R1 ints in memory in symmetry-blocked form, NReq=940861.
 Requested convergence on RMS density matrix=1.00D-08 within 128 cycles.
 Requested convergence on MAX density matrix=1.00D-06.
 Requested convergence on             energy=1.00D-06.
 No special actions if energy rises.
 SCF Done:  E(RHF) =  -76.2738470381     A.U. after    8 cycles
            NFock=  8  Conv=0.29D-08     -V/T= 2.0014
 ExpMin= 1.61D-01 ExpMax= 5.48D+03 ExpMxC= 8.25D+02 IAcc=3 IRadAn=         5 AccDes= 0.00D+00
 HarFok:  IExCor=  205 AccDes= 0.00D+00 IRadAn=         5 IDoV=-2 UseB2=F ITyADJ=14
 ICtDFT= 12500011 ScaDFX=  1.000000  1.000000  1.000000  1.000000
 Range of M.O.s used for correlation:     2    30
 NBasis=    30 NAE=     5 NBE=     5 NFC=     1 NFV=     0
 NROrb=     29 NOA=     4 NOB=     4 NVA=    25 NVB=    25
 Fully in-core method, ICMem=     6273201.
 JobTyp=1 Pass  1 fully in-core, NPsUse=  4.
 Spin components of T(2) and E(2):
     alpha-alpha T2 =       0.6111417356D-02 E2=     -0.2435592949D-01
     alpha-beta  T2 =       0.3778956528D-01 E2=     -0.1518850817D+00
     beta-beta   T2 =       0.6111417356D-02 E2=     -0.2435592949D-01
 ANorm=    0.1024701127D+01
 E2 =    -0.2005969407D+00 EUMP2 =    -0.76474443978729D+02
 Variable Step   Value    
 -------- ---- -----------
     2      11    2.164208
 ---------------------------------------------------------------------------------------------------
                            Z-MATRIX (ANGSTROMS AND DEGREES)
   CD    Cent   Atom    N1       Length/X        N2       Alpha/Y        N3        Beta/Z          J
 ---------------------------------------------------------------------------------------------------
      1      1  O 
      2         X        1   0.961200(     1)
      3      2  H        1   0.961200(     2)      2  124.000(     5)
      4      3  H        1   0.961200(     3)      2  124.000(     6)      3  120.000(     8)      0
      5      4  H        1   0.961200(     4)      2  124.000(     7)      3 -120.000(     9)      0
 ---------------------------------------------------------------------------------------------------
                         Z-Matrix orientation:                         
 ---------------------------------------------------------------------
 Center     Atomic      Atomic             Coordinates (Angstroms)
 Number     Number       Type             X           Y           Z
 ---------------------------------------------------------------------
      1          8           0        0.000000    0.000000    0.000000
      2         -1           0        0.000000    0.000000    0.961200
      3          1           0        0.796871    0.000000   -0.537496
      4          1           0       -0.398435   -0.690110   -0.537496
      5          1           0       -0.398435    0.690110   -0.537496
 ---------------------------------------------------------------------
                    Distance matrix (angstroms):
                    1          2          3          4          5
     1  O    0.000000
     2  X    0.961200   0.000000
     3  H    0.961200   1.697378   0.000000
     4  H    0.961200   1.697378   1.380221   0.000000
     5  H    0.961200   1.697378   1.380221   1.380221   0.000000
 Stoichiometry    H3O(1+)
 Framework group  C3V[C3(O),3SGV(H)]
 Deg. of freedom     2
 Full point group                 C3V     NOp   6
 Largest Abelian subgroup         CS      NOp   2
 Largest concise Abelian subgroup CS      NOp   2
                         Standard orientation:                         
 ---------------------------------------------------------------------
 Center     Atomic      Atomic             Coordinates (Angstroms)
 Number     Number       Type             X           Y           Z
 ---------------------------------------------------------------------
      1          8           0        0.000000    0.000000    0.146590
      2          1           0        0.000000    0.796871   -0.390906
      3          1           0        0.690110   -0.398435   -0.390906
      4          1           0       -0.690110   -0.398435   -0.390906
 ---------------------------------------------------------------------
 Rotational constants (GHZ):         298.2321187         298.2321187         263.2296768
 Standard basis: 6-31G(d,p) (6D, 7F)
[...]
 NBsUse=    30 1.00D-06 EigRej= -1.00D+00 NBFU=    20    10
 Initial guess from the checkpoint file:  "/scratch-data/g16-scratch/Gau-328229.chk"
 B after Tr=    -0.000000   -0.000000   -0.000000
         Rot=    1.000000   -0.000000   -0.000000   -0.000000 Ang=   0.00 deg.
 Initial guess orbital symmetries:
       Occupied  (A1) (A1) (E) (E) (A1)
       Virtual   (A1) (E) (E) (E) (E) (A1) (A1) (E) (E) (A1) (E)
                 (E) (A2) (A1) (E) (E) (A1) (E) (E) (E) (E) (A1)
                 (E) (E) (A1)
 ExpMin= 1.61D-01 ExpMax= 5.48D+03 ExpMxC= 8.25D+02 IAcc=3 IRadAn=         5 AccDes= 0.00D+00
 Harris functional with IExCor=  205 and IRadAn=       5 diagonalized for initial guess.
 HarFok:  IExCor=  205 AccDes= 0.00D+00 IRadAn=         5 IDoV= 1 UseB2=F ITyADJ=14
 ICtDFT=  3500011 ScaDFX=  1.000000  1.000000  1.000000  1.000000
 FoFCou: FMM=F IPFlag=           0 FMFlag=      100000 FMFlg1=           0
         NFxFlg=           0 DoJE=T BraDBF=F KetDBF=T FulRan=T
         wScrn=  0.000000 ICntrl=       500 IOpCl=  0 I1Cent=   200000004 NGrid=           0
         NMat0=    1 NMatS0=      1 NMatT0=    0 NMatD0=    1 NMtDS0=    0 NMtDT0=    0
 Petite list used in FoFCou.
 Keep R1 ints in memory in symmetry-blocked form, NReq=940861.
 Requested convergence on RMS density matrix=1.00D-08 within 128 cycles.
 Requested convergence on MAX density matrix=1.00D-06.
 Requested convergence on             energy=1.00D-06.
 No special actions if energy rises.
 SCF Done:  E(RHF) =  -76.3089375886     A.U. after    8 cycles
            NFock=  8  Conv=0.21D-08     -V/T= 2.0032
 ExpMin= 1.61D-01 ExpMax= 5.48D+03 ExpMxC= 8.25D+02 IAcc=3 IRadAn=         5 AccDes= 0.00D+00
 HarFok:  IExCor=  205 AccDes= 0.00D+00 IRadAn=         5 IDoV=-2 UseB2=F ITyADJ=14
 ICtDFT= 12500011 ScaDFX=  1.000000  1.000000  1.000000  1.000000
 Range of M.O.s used for correlation:     2    30
 NBasis=    30 NAE=     5 NBE=     5 NFC=     1 NFV=     0
 NROrb=     29 NOA=     4 NOB=     4 NVA=    25 NVB=    25
 Fully in-core method, ICMem=     6273201.
 JobTyp=1 Pass  1 fully in-core, NPsUse=  4.
 Spin components of T(2) and E(2):
     alpha-alpha T2 =       0.5792010527D-02 E2=     -0.2367581684D-01
     alpha-beta  T2 =       0.3547761245D-01 E2=     -0.1468024394D+00
     beta-beta   T2 =       0.5792010527D-02 E2=     -0.2367581684D-01
 ANorm=    0.1023260296D+01
 E2 =    -0.1941540731D+00 EUMP2 =    -0.76503091661720D+02
 Variable Step   Value    
 -------- ---- -----------
     2      44    1.588250
 ---------------------------------------------------------------------------------------------------
                            Z-MATRIX (ANGSTROMS AND DEGREES)
   CD    Cent   Atom    N1       Length/X        N2       Alpha/Y        N3        Beta/Z          J
 ---------------------------------------------------------------------------------------------------
      1      1  O 
      2         X        1   0.961200(     1)
      3      2  H        1   0.961200(     2)      2   91.000(     5)
      4      3  H        1   0.961200(     3)      2   91.000(     6)      3  120.000(     8)      0
      5      4  H        1   0.961200(     4)      2   91.000(     7)      3 -120.000(     9)      0
 ---------------------------------------------------------------------------------------------------
                         Z-Matrix orientation:                         
 ---------------------------------------------------------------------
 Center     Atomic      Atomic             Coordinates (Angstroms)
 Number     Number       Type             X           Y           Z
 ---------------------------------------------------------------------
      1          8           0        0.000000    0.000000    0.000000
      2         -1           0        0.000000    0.000000    0.961200
      3          1           0        0.961054    0.000000   -0.016775
      4          1           0       -0.480527   -0.832297   -0.016775
      5          1           0       -0.480527    0.832297   -0.016775
 ---------------------------------------------------------------------
                    Distance matrix (angstroms):
                    1          2          3          4          5
     1  O    0.000000
     2  X    0.961200   0.000000
     3  H    0.961200   1.371153   0.000000
     4  H    0.961200   1.371153   1.664594   0.000000
     5  H    0.961200   1.371153   1.664594   1.664594   0.000000
 Stoichiometry    H3O(1+)
 Framework group  C3V[C3(O),3SGV(H)]
 Deg. of freedom     2
 Full point group                 C3V     NOp   6
 Largest Abelian subgroup         CS      NOp   2
 Largest concise Abelian subgroup CS      NOp   2
                         Standard orientation:                         
 ---------------------------------------------------------------------
 Center     Atomic      Atomic             Coordinates (Angstroms)
 Number     Number       Type             X           Y           Z
 ---------------------------------------------------------------------
      1          8           0        0.000000    0.000000    0.004575
      2          1           0        0.000000    0.961054   -0.012200
      3          1           0        0.832297   -0.480527   -0.012200
      4          1           0       -0.832297   -0.480527   -0.012200
 ---------------------------------------------------------------------
 Rotational constants (GHZ):         361.7620959         361.7620959         180.9737468
 Standard basis: 6-31G(d,p) (6D, 7F)
 There are    20 symmetry adapted cartesian basis functions of A'  symmetry.
 There are    10 symmetry adapted cartesian basis functions of A"  symmetry.
 There are    20 symmetry adapted basis functions of A'  symmetry.
 There are    10 symmetry adapted basis functions of A"  symmetry.
    30 basis functions,    49 primitive gaussians,    30 cartesian basis functions
     5 alpha electrons        5 beta electrons
       nuclear repulsion energy        14.1666193255 Hartrees.
 NAtoms=    4 NActive=    4 NUniq=    2 SFac= 4.00D+00 NAtFMM=   60 NAOKFM=F Big=F
 Integral buffers will be    131072 words long.
 Raffenetti 1 integral format.
 Two-electron integral symmetry is turned on.
 One-electron integrals computed using PRISM.
 NBasis=    30 RedAO= T EigKep=  1.84D-02  NBF=    20    10
 NBsUse=    30 1.00D-06 EigRej= -1.00D+00 NBFU=    20    10
 Initial guess from the checkpoint file:  "/scratch-data/g16-scratch/Gau-328229.chk"
 B after Tr=     0.000000    0.000000    0.000000
         Rot=    1.000000    0.000000    0.000000   -0.000000 Ang=   0.00 deg.
 Initial guess orbital symmetries:
       Occupied  (A1) (A1) (E) (E) (A1)
       Virtual   (A1) (E) (E) (E) (E) (A1) (A1) (E) (E) (A1) (E)
                 (E) (A2) (A1) (E) (E) (A1) (E) (E) (E) (E) (A1)
                 (E) (E) (A1)
 ExpMin= 1.61D-01 ExpMax= 5.48D+03 ExpMxC= 8.25D+02 IAcc=3 IRadAn=         5 AccDes= 0.00D+00
 Harris functional with IExCor=  205 and IRadAn=       5 diagonalized for initial guess.
 HarFok:  IExCor=  205 AccDes= 0.00D+00 IRadAn=         5 IDoV= 1 UseB2=F ITyADJ=14
 ICtDFT=  3500011 ScaDFX=  1.000000  1.000000  1.000000  1.000000
 FoFCou: FMM=F IPFlag=           0 FMFlag=      100000 FMFlg1=           0
         NFxFlg=           0 DoJE=T BraDBF=F KetDBF=T FulRan=T
         wScrn=  0.000000 ICntrl=       500 IOpCl=  0 I1Cent=   200000004 NGrid=           0
         NMat0=    1 NMatS0=      1 NMatT0=    0 NMatD0=    1 NMtDS0=    0 NMtDT0=    0
 Petite list used in FoFCou.
 Keep R1 ints in memory in symmetry-blocked form, NReq=940861.
 Requested convergence on RMS density matrix=1.00D-08 within 128 cycles.
 Requested convergence on MAX density matrix=1.00D-06.
 Requested convergence on             energy=1.00D-06.
 No special actions if energy rises.
 SCF Done:  E(RHF) =  -76.3088890801     A.U. after    8 cycles
            NFock=  8  Conv=0.15D-08     -V/T= 2.0032
 ExpMin= 1.61D-01 ExpMax= 5.48D+03 ExpMxC= 8.25D+02 IAcc=3 IRadAn=         5 AccDes= 0.00D+00
 HarFok:  IExCor=  205 AccDes= 0.00D+00 IRadAn=         5 IDoV=-2 UseB2=F ITyADJ=14
 ICtDFT= 12500011 ScaDFX=  1.000000  1.000000  1.000000  1.000000
 Range of M.O.s used for correlation:     2    30
 NBasis=    30 NAE=     5 NBE=     5 NFC=     1 NFV=     0
 NROrb=     29 NOA=     4 NOB=     4 NVA=    25 NVB=    25
 Fully in-core method, ICMem=     6273201.
 JobTyp=1 Pass  1 fully in-core, NPsUse=  4.
 Spin components of T(2) and E(2):
     alpha-alpha T2 =       0.5792027130D-02 E2=     -0.2367656894D-01
     alpha-beta  T2 =       0.3547306361D-01 E2=     -0.1467907071D+00
     beta-beta   T2 =       0.5792027130D-02 E2=     -0.2367656894D-01
 ANorm=    0.1023258090D+01
 E2 =    -0.1941438449D+00 EUMP2 =    -0.76503032925072D+02
 Variable Step   Value    
 -------- ---- -----------
     2      45    1.570796
 ---------------------------------------------------------------------------------------------------
                            Z-MATRIX (ANGSTROMS AND DEGREES)
   CD    Cent   Atom    N1       Length/X        N2       Alpha/Y        N3        Beta/Z          J
 ---------------------------------------------------------------------------------------------------
      1      1  O 
      2         X        1   0.961200(     1)
      3      2  H        1   0.961200(     2)      2   90.000(     5)
      4      3  H        1   0.961200(     3)      2   90.000(     6)      3  120.000(     8)      0
      5      4  H        1   0.961200(     4)      2   90.000(     7)      3 -120.000(     9)      0
 ---------------------------------------------------------------------------------------------------
                         Z-Matrix orientation:                         
 ---------------------------------------------------------------------
 Center     Atomic      Atomic             Coordinates (Angstroms)
 Number     Number       Type             X           Y           Z
 ---------------------------------------------------------------------
      1          8           0        0.000000    0.000000    0.000000
      2         -1           0        0.000000    0.000000    0.961200
      3          1           0        0.961200    0.000000    0.000000
      4          1           0       -0.480600   -0.832424    0.000000
      5          1           0       -0.480600    0.832424    0.000000
 ---------------------------------------------------------------------
                    Distance matrix (angstroms):
                    1          2          3          4          5
     1  O    0.000000
     2  X    0.961200   0.000000
     3  H    0.961200   1.359342   0.000000
     4  H    0.961200   1.359342   1.664847   0.000000
     5  H    0.961200   1.359342   1.664847   1.664847   0.000000
 Stoichiometry    H3O(1+)
 Framework group  D3H[O(O),3C2(H)]
 Deg. of freedom     1
 Full point group                 D3H     NOp  12
 Omega: Change in point group or standard orientation.

 Old FWG=C03V [C3(O1),3SGV(H1)]
 New FWG=D03H [O(O1),3C2(H1)]
 Largest Abelian subgroup         C2V     NOp   4
 Largest concise Abelian subgroup C2      NOp   2
                         Standard orientation:                         
 ---------------------------------------------------------------------
 Center     Atomic      Atomic             Coordinates (Angstroms)
 Number     Number       Type             X           Y           Z
 ---------------------------------------------------------------------
      1          8           0        0.000000    0.000000    0.000000
      2          1           0        0.000000    0.961200    0.000000
      3          1           0        0.832424   -0.480600    0.000000
      4          1           0       -0.832424   -0.480600    0.000000
 ---------------------------------------------------------------------
 Rotational constants (GHZ):         361.8372493         361.8372493         180.9186246
 Standard basis: 6-31G(d,p) (6D, 7F)
 There are    15 symmetry adapted cartesian basis functions of A1  symmetry.
 There are     2 symmetry adapted cartesian basis functions of A2  symmetry.
 There are     8 symmetry adapted cartesian basis functions of B1  symmetry.
 There are     5 symmetry adapted cartesian basis functions of B2  symmetry.
 There are    15 symmetry adapted basis functions of A1  symmetry.
 There are     2 symmetry adapted basis functions of A2  symmetry.
 There are     8 symmetry adapted basis functions of B1  symmetry.
 There are     5 symmetry adapted basis functions of B2  symmetry.
    30 basis functions,    49 primitive gaussians,    30 cartesian basis functions
     5 alpha electrons        5 beta electrons
       nuclear repulsion energy        14.1664740716 Hartrees.
 NAtoms=    4 NActive=    4 NUniq=    2 SFac= 4.00D+00 NAtFMM=   60 NAOKFM=F Big=F
 Integral buffers will be    131072 words long.
 Raffenetti 1 integral format.
 Two-electron integral symmetry is turned on.
 One-electron integrals computed using PRISM.
 NBasis=    30 RedAO= T EigKep=  1.84D-02  NBF=    15     2     8     5
 NBsUse=    30 1.00D-06 EigRej= -1.00D+00 NBFU=    15     2     8     5
 Initial guess from the checkpoint file:  "/scratch-data/g16-scratch/Gau-328229.chk"
 B after Tr=     0.000000   -0.000000   -0.000000
         Rot=    1.000000   -0.000000   -0.000000    0.000000 Ang=   0.00 deg.
 Initial guess orbital symmetries:
       Occupied  (A1') (A1') (E') (E') (A2")
       Virtual   (A1') (E') (E') (E') (E') (A1') (A2") (E') (E')
                 (A1') (E") (E") (A2') (A1') (E') (E') (A2") (E")
                 (E") (E') (E') (A1') (E') (E') (A1')
 ExpMin= 1.61D-01 ExpMax= 5.48D+03 ExpMxC= 8.25D+02 IAcc=3 IRadAn=         5 AccDes= 0.00D+00
 Harris functional with IExCor=  205 and IRadAn=       5 diagonalized for initial guess.
 HarFok:  IExCor=  205 AccDes= 0.00D+00 IRadAn=         5 IDoV= 1 UseB2=F ITyADJ=14
 ICtDFT=  3500011 ScaDFX=  1.000000  1.000000  1.000000  1.000000
 FoFCou: FMM=F IPFlag=           0 FMFlag=      100000 FMFlg1=           0
         NFxFlg=           0 DoJE=T BraDBF=F KetDBF=T FulRan=T
         wScrn=  0.000000 ICntrl=       500 IOpCl=  0 I1Cent=   200000004 NGrid=           0
         NMat0=    1 NMatS0=      1 NMatT0=    0 NMatD0=    1 NMtDS0=    0 NMtDT0=    0
 Petite list used in FoFCou.
 Keep R1 ints in memory in symmetry-blocked form, NReq=941619.
 Requested convergence on RMS density matrix=1.00D-08 within 128 cycles.
 Requested convergence on MAX density matrix=1.00D-06.
 Requested convergence on             energy=1.00D-06.
 No special actions if energy rises.
 SCF Done:  E(RHF) =  -76.3088727154     A.U. after    5 cycles
            NFock=  5  Conv=0.99D-08     -V/T= 2.0032
 ExpMin= 1.61D-01 ExpMax= 5.48D+03 ExpMxC= 8.25D+02 IAcc=3 IRadAn=         5 AccDes= 0.00D+00
 HarFok:  IExCor=  205 AccDes= 0.00D+00 IRadAn=         5 IDoV=-2 UseB2=F ITyADJ=14
 ICtDFT= 12500011 ScaDFX=  1.000000  1.000000  1.000000  1.000000
 Range of M.O.s used for correlation:     2    30
 NBasis=    30 NAE=     5 NBE=     5 NFC=     1 NFV=     0
 NROrb=     29 NOA=     4 NOB=     4 NVA=    25 NVB=    25
 Fully in-core method, ICMem=     6273201.
 JobTyp=1 Pass  1 fully in-core, NPsUse=  4.
 Spin components of T(2) and E(2):
     alpha-alpha T2 =       0.5792033804D-02 E2=     -0.2367682315D-01
     alpha-beta  T2 =       0.3547154956D-01 E2=     -0.1467867965D+00
     beta-beta   T2 =       0.5792033804D-02 E2=     -0.2367682315D-01
 ANorm=    0.1023257356D+01
 E2 =    -0.1941404428D+00 EUMP2 =    -0.76503013158224D+02
 Scan completed.
 
 Summary of the potential surface scan:
   N      HOX         SCF          MP2    
 ----  ---------  -----------  -----------
    1   135.0000    -76.20843    -76.41520
    2   134.0000    -76.21709    -76.42314
    3   133.0000    -76.22523    -76.43056
    4   132.0000    -76.23286    -76.43751
    5   131.0000    -76.24000    -76.44400
    6   130.0000    -76.24669    -76.45005
    7   129.0000    -76.25294    -76.45569
    8   128.0000    -76.25876    -76.46093
    9   127.0000    -76.26417    -76.46579
   10   126.0000    -76.26920    -76.47029
   11   125.0000    -76.27385    -76.47444
   12   124.0000    -76.27814    -76.47826
   13   123.0000    -76.28208    -76.48176
   14   122.0000    -76.28570    -76.48495
   15   121.0000    -76.28900    -76.48786
   16   120.0000    -76.29199    -76.49048
   17   119.0000    -76.29470    -76.49283
   18   118.0000    -76.29714    -76.49493
   19   117.0000    -76.29931    -76.49679
   20   116.0000    -76.30124    -76.49843
   21   115.0000    -76.30294    -76.49985
   22   114.0000    -76.30442    -76.50107
   23   113.0000    -76.30569    -76.50210
   24   112.0000    -76.30678    -76.50296
   25   111.0000    -76.30769    -76.50366
   26   110.0000    -76.30844    -76.50422
   27   109.0000    -76.30904    -76.50463
   28   108.0000    -76.30951    -76.50493
   29   107.0000    -76.30986    -76.50513
   30   106.0000    -76.31010    -76.50523
   31   105.0000    -76.31025    -76.50524
   32   104.0000    -76.31032    -76.50519
   33   103.0000    -76.31032    -76.50509
   34   102.0000    -76.31026    -76.50493
   35   101.0000    -76.31017    -76.50475
   36   100.0000    -76.31004    -76.50454
   37    99.0000    -76.30989    -76.50432
   38    98.0000    -76.30973    -76.50409
   39    97.0000    -76.30956    -76.50387
   40    96.0000    -76.30940    -76.50367
   41    95.0000    -76.30925    -76.50348
   42    94.0000    -76.30912    -76.50332
   43    93.0000    -76.30902    -76.50319
   44    92.0000    -76.30894    -76.50309
   45    91.0000    -76.30889    -76.50303
   46    90.0000    -76.30887    -76.50301
 ----  ---------  -----------  -----------
  
 1\1\GINC-SUGARCUBE\Scan\RMP2-FC\6-31G(d,p)\H3O1(1+)\JUPYTER-BRANDONC\1
 3-Mar-2023\1\\# MP2 6-31G(d,p) scf=tight scan\\h3o+ scan along umbrell
 a mode\\1,1\O\X,1,a\H,1,a,2,HOX\H,1,a,2,HOX,3,120.,0\H,1,a,2,HOX,3,-12
 0.,0\\a=0.9612\HOX=135.,s,45,-1.\\Version=ES64L-G16RevB.01\HF=-76.2084
 334,-76.2170946,-76.2252277,-76.2328568,-76.2400043,-76.2466909,-76.25
 29359,-76.2587573,-76.2641723,-76.269197,-76.273847,-76.2781376,-76.28
 20832,-76.2856985,-76.2889976,-76.2919946,-76.2947036,-76.2971386,-76.
 2993136,-76.3012426,-76.3029397,-76.3044189,-76.3056943,-76.3067802,-7
 6.3076904,-76.3084393,-76.3090406,-76.3095084,-76.3098565,-76.3100983,
 -76.3102472,-76.3103162,-76.3103181,-76.3102649,-76.3101683,-76.310039
 6,-76.3098892,-76.3097268,-76.3095613,-76.3094009,-76.3092527,-76.3091
 229,-76.3090165,-76.3089376,-76.3088891,-76.3088727\MP2=-76.4151972,-7
 6.4231357,-76.4305637,-76.4375091,-76.4439968,-76.4500494,-76.4556872,
 -76.460929,-76.4657919,-76.4702919,-76.474444,-76.4782626,-76.4817617,
 -76.4849547,-76.4878551,-76.490476,-76.4928305,-76.4949319,-76.4967932
 ,-76.4984276,-76.4998484,-76.5010688,-76.5021024,-76.5029623,-76.50366
 21,-76.5042152,-76.5046349,-76.5049346,-76.5051273,-76.5052261,-76.505
 2438,-76.5051928,-76.5050854,-76.5049332,-76.5047474,-76.5045388,-76.5
 043174,-76.5040926,-76.5038729,-76.5036663,-76.5034794,-76.5033182,-76
 .5031877,-76.5030917,-76.5030329,-76.5030132\RMSD=3.428e-09,3.506e-09,
 3.336e-09,3.204e-09,3.106e-09,3.037e-09,2.992e-09,2.963e-09,2.945e-09,
 2.931e-09,2.917e-09,2.902e-09,2.885e-09,2.867e-09,2.849e-09,2.833e-09,
 2.823e-09,2.822e-09,2.832e-09,2.856e-09,2.895e-09,2.952e-09,3.026e-09,
 3.117e-09,3.226e-09,3.351e-09,3.490e-09,3.641e-09,3.800e-09,3.963e-09,
 4.125e-09,4.280e-09,4.422e-09,4.542e-09,4.632e-09,4.680e-09,4.674e-09,
 4.599e-09,4.439e-09,4.178e-09,3.787e-09,3.335e-09,2.736e-09,2.086e-09,
 1.507e-09,9.894e-09\PG=D03H [O(O1),3C2(H1)]\\@


 ERROR IS THE FORCE THAT WELDS MEN TOGETHER....
 TRUTH IS COMMUNICATED TO MEN ONLY BY DEEDS OF TRUTH.
           TOLSTOI,MY RELIGION
 Job cpu time:       0 days  0 hours  1 minutes 32.9 seconds.
 Elapsed time:       0 days  0 hours  0 minutes 23.5 seconds.
 File lengths (MBytes):  RWF=      6 Int=      0 D2E=      0 Chk=      2 Scr=      1
 Normal termination of Gaussian 16 at Mon Mar 13 23:00:19 2023.
