 Entering Gaussian System, Link 0=g16
 Input=CCSD.com
 Output=CCSD.log
 Initial command:
 /usr/bin/g16/l1.exe "/scratch-data/g16-scratch/Gau-129037.inp" -scrdir="/scratch-data/g16-scratch/"
 Entering Link 1 = /usr/bin/g16/l1.exe PID=    129039.
  
 Copyright (c) 1988-2017, Gaussian, Inc.  All Rights Reserved.
  
 This is part of the Gaussian(R) 16 program.  It is based on
 the Gaussian(R) 09 system (copyright 2009, Gaussian, Inc.),
 the Gaussian(R) 03 system (copyright 2003, Gaussian, Inc.),
 the Gaussian(R) 98 system (copyright 1998, Gaussian, Inc.),
 the Gaussian(R) 94 system (copyright 1995, Gaussian, Inc.),
 the Gaussian 92(TM) system (copyright 1992, Gaussian, Inc.),
 the Gaussian 90(TM) system (copyright 1990, Gaussian, Inc.),
 the Gaussian 88(TM) system (copyright 1988, Gaussian, Inc.),
 the Gaussian 86(TM) system (copyright 1986, Carnegie Mellon
 University), and the Gaussian 82(TM) system (copyright 1983,
 Carnegie Mellon University). Gaussian is a federally registered
 trademark of Gaussian, Inc.
  
 This software contains proprietary and confidential information,
 including trade secrets, belonging to Gaussian, Inc.
  
 This software is provided under written license and may be
 used, copied, transmitted, or stored only in accord with that
 written license.
  
 The following legend is applicable only to US Government
 contracts under FAR:
  
                    RESTRICTED RIGHTS LEGEND
  
 Use, reproduction and disclosure by the US Government is
 subject to restrictions as set forth in subparagraphs (a)
 and (c) of the Commercial Computer Software - Restricted
 Rights clause in FAR 52.227-19.
  
 Gaussian, Inc.
 340 Quinnipiac St., Bldg. 40, Wallingford CT 06492
  
  
 ---------------------------------------------------------------
 Warning -- This program may not be used in any manner that
 competes with the business of Gaussian, Inc. or will provide
 assistance to any competitor of Gaussian, Inc.  The licensee
 of this program is prohibited from giving any competitor of
 Gaussian, Inc. access to this program.  By using this program,
 the user acknowledges that Gaussian, Inc. is engaged in the
 business of creating and licensing software in the field of
 computational chemistry and represents and warrants to the
 licensee that it is not a competitor of Gaussian, Inc. and that
 it will not use this program in any manner prohibited above.
 ---------------------------------------------------------------
  

 Cite this work as:
 Gaussian 16, Revision B.01,
 M. J. Frisch, G. W. Trucks, H. B. Schlegel, G. E. Scuseria, 
 M. A. Robb, J. R. Cheeseman, G. Scalmani, V. Barone, 
 G. A. Petersson, H. Nakatsuji, X. Li, M. Caricato, A. V. Marenich, 
 J. Bloino, B. G. Janesko, R. Gomperts, B. Mennucci, H. P. Hratchian, 
 J. V. Ortiz, A. F. Izmaylov, J. L. Sonnenberg, D. Williams-Young, 
 F. Ding, F. Lipparini, F. Egidi, J. Goings, B. Peng, A. Petrone, 
 T. Henderson, D. Ranasinghe, V. G. Zakrzewski, J. Gao, N. Rega, 
 G. Zheng, W. Liang, M. Hada, M. Ehara, K. Toyota, R. Fukuda, 
 J. Hasegawa, M. Ishida, T. Nakajima, Y. Honda, O. Kitao, H. Nakai, 
 T. Vreven, K. Throssell, J. A. Montgomery, Jr., J. E. Peralta, 
 F. Ogliaro, M. J. Bearpark, J. J. Heyd, E. N. Brothers, K. N. Kudin, 
 V. N. Staroverov, T. A. Keith, R. Kobayashi, J. Normand, 
 K. Raghavachari, A. P. Rendell, J. C. Burant, S. S. Iyengar, 
 J. Tomasi, M. Cossi, J. M. Millam, M. Klene, C. Adamo, R. Cammi, 
 J. W. Ochterski, R. L. Martin, K. Morokuma, O. Farkas, 
 J. B. Foresman, and D. J. Fox, Gaussian, Inc., Wallingford CT, 2016.
 
 ******************************************
 Gaussian 16:  ES64L-G16RevB.01 20-Dec-2017
                17-Apr-2023 
 ******************************************
 %nproc=2
 Will use up to    2 processors via shared memory.
 %mem=800MB
 ---------------------------------------
 # CCSD(T) 6-311+g(d,p) # scan scf=tight
 ---------------------------------------
 1/38=1,60=1,172=1/1,8;
 2/12=2,17=6,18=5,29=3,40=1/2;
 3/5=4,6=6,7=111,11=9,25=1,30=1/1,2,3;
 4//1;
 5/5=2,32=2,38=5/2;
 8/6=4,9=120000,10=2/1,4;
 9/5=7,14=2/13;
 6/7=2,8=2,9=2,10=2,18=1/1;
 1/60=1/8(1);
 99/9=1/99;
 2/29=3/2;
 3/5=4,6=6,7=111,11=9,25=1,30=1/1,2,3;
 4/5=5,16=3,69=1/1;
 5/5=2,32=2,38=5/2;
 8/6=4,9=120000,10=2/1,4;
 9/5=7,14=2/13;
 1/60=1/8(-6);
 99/9=1/99;
 -------------------------------------
 Scan of HCl Bond using CCSD(T) Method
 -------------------------------------
 Symbolic Z-matrix:
 Charge =  0 Multiplicity = 1
 H
 Cl                   1    dist
       Variables:
  dist                  0.6    Scan 78    0.05   
 
 Scan the potential surface.
 Variable   Value     No. Steps Step-Size
 -------- ----------- --------- ---------
     1       0.600000      78      0.0500
 A total of     79 points will be computed.
 ---------------------------------------------------------------------------------------------------
                            Z-MATRIX (ANGSTROMS AND DEGREES)
   CD    Cent   Atom    N1       Length/X        N2       Alpha/Y        N3        Beta/Z          J
 ---------------------------------------------------------------------------------------------------
      1      1  H 
      2      2  Cl       1   0.600000(     1)
 ---------------------------------------------------------------------------------------------------
                         Z-Matrix orientation:                         
 ---------------------------------------------------------------------
 Center     Atomic      Atomic             Coordinates (Angstroms)
 Number     Number       Type             X           Y           Z
 ---------------------------------------------------------------------
      1          1           0        0.000000    0.000000    0.000000
      2         17           0        0.000000    0.000000    0.600000
 ---------------------------------------------------------------------
 Stoichiometry    ClH
 Framework group  C*V[C*(HCl)]
 Deg. of freedom     1
 Full point group                 C*V     NOp   4
 Largest Abelian subgroup         C2V     NOp   4
 Largest concise Abelian subgroup C1      NOp   1
                         Standard orientation:                         
 ---------------------------------------------------------------------
 Center     Atomic      Atomic             Coordinates (Angstroms)
 Number     Number       Type             X           Y           Z
 ---------------------------------------------------------------------
      1          1           0        0.000000    0.000000   -0.566667
      2         17           0        0.000000    0.000000    0.033333
 ---------------------------------------------------------------------
 Rotational constants (GHZ):           0.0000000        1433.0760170        1433.0760170
 Standard basis: 6-311+G(d,p) (5D, 7F)
 There are    20 symmetry adapted cartesian basis functions of A1  symmetry.
 There are     1 symmetry adapted cartesian basis functions of A2  symmetry.
 There are     8 symmetry adapted cartesian basis functions of B1  symmetry.
 There are     8 symmetry adapted cartesian basis functions of B2  symmetry.
 There are    19 symmetry adapted basis functions of A1  symmetry.
 There are     1 symmetry adapted basis functions of A2  symmetry.
 There are     8 symmetry adapted basis functions of B1  symmetry.
 There are     8 symmetry adapted basis functions of B2  symmetry.
    36 basis functions,    61 primitive gaussians,    37 cartesian basis functions
     9 alpha electrons        9 beta electrons
       nuclear repulsion energy        14.9933543094 Hartrees.
 NAtoms=    2 NActive=    2 NUniq=    2 SFac= 1.00D+00 NAtFMM=   60 NAOKFM=F Big=F
 Integral buffers will be    131072 words long.
 Raffenetti 1 integral format.
 Two-electron integral symmetry is turned on.
 One-electron integrals computed using PRISM.
 NBasis=    36 RedAO= T EigKep=  4.50D-03  NBF=    19     1     8     8
 NBsUse=    36 1.00D-06 EigRej= -1.00D+00 NBFU=    19     1     8     8
 ExpMin= 4.83D-02 ExpMax= 1.06D+05 ExpMxC= 3.62D+03 IAcc=3 IRadAn=         5 AccDes= 0.00D+00
 Harris functional with IExCor=  205 and IRadAn=       5 diagonalized for initial guess.
 HarFok:  IExCor=  205 AccDes= 0.00D+00 IRadAn=         5 IDoV= 1 UseB2=F ITyADJ=14
 ICtDFT=  3500011 ScaDFX=  1.000000  1.000000  1.000000  1.000000
 FoFCou: FMM=F IPFlag=           0 FMFlag=      100000 FMFlg1=           0
         NFxFlg=           0 DoJE=T BraDBF=F KetDBF=T FulRan=T
         wScrn=  0.000000 ICntrl=       500 IOpCl=  0 I1Cent=   200000004 NGrid=           0
         NMat0=    1 NMatS0=      1 NMatT0=    0 NMatD0=    1 NMtDS0=    0 NMtDT0=    0
 Petite list used in FoFCou.
 Initial guess orbital symmetries:
       Occupied  (SG) (SG) (SG) (PI) (PI) (SG) (SG) (PI) (PI)
       Virtual   (SG) (SG) (PI) (PI) (SG) (SG) (PI) (PI) (SG) (PI)
                 (PI) (DLTA) (DLTA) (SG) (SG) (PI) (PI) (SG) (SG)
                 (PI) (PI) (SG) (SG) (PI) (PI) (SG) (SG)
 The electronic state of the initial guess is 1-SG.
 Keep R1 ints in memory in symmetry-blocked form, NReq=1059152.
 Requested convergence on RMS density matrix=1.00D-08 within 128 cycles.
 Requested convergence on MAX density matrix=1.00D-06.
 Requested convergence on             energy=1.00D-06.
 No special actions if energy rises.
 SCF Done:  E(RHF) =  -458.742800696     A.U. after    9 cycles
            NFock=  9  Conv=0.85D-08     -V/T= 1.9896
 ExpMin= 4.83D-02 ExpMax= 1.06D+05 ExpMxC= 3.62D+03 IAcc=3 IRadAn=         5 AccDes= 0.00D+00
 HarFok:  IExCor=  205 AccDes= 0.00D+00 IRadAn=         5 IDoV=-2 UseB2=F ITyADJ=14
 ICtDFT= 12500011 ScaDFX=  1.000000  1.000000  1.000000  1.000000
 Range of M.O.s used for correlation:     6    36
 NBasis=    36 NAE=     9 NBE=     9 NFC=     5 NFV=     0
 NROrb=     31 NOA=     4 NOB=     4 NVA=    27 NVB=    27
 Semi-Direct transformation.
 ModeAB=           2 MOrb=             4 LenV=     104662558
 LASXX=        14355 LTotXX=       14355 LenRXX=       14355
 LTotAB=       16240 MaxLAS=       87172 LenRXY=       87172
 NonZer=       92008 LenScr=      785920 LnRSAI=           0
 LnScr1=           0 LExtra=           0 Total=       887447
 MaxDsk=          -1 SrtSym=           F ITran=            4
 JobTyp=0 Pass  1:  I=   1 to   4.
 (rs|ai) integrals will be sorted in core.
 Spin components of T(2) and E(2):
     alpha-alpha T2 =       0.5892086367D-02 E2=     -0.1911164145D-01
     alpha-beta  T2 =       0.3349492979D-01 E2=     -0.1142123401D+00
     beta-beta   T2 =       0.5892086367D-02 E2=     -0.1911164145D-01
 ANorm=    0.1022388919D+01
 E2 =    -0.1524356230D+00 EUMP2 =    -0.45889523631860D+03
 Keep R2 and R3 ints in memory in symmetry-blocked form, NReq=1061838.
 CIDS: In Core Option IDoMem=           1.
 Iterations=  50 Convergence= 0.100D-06
 Produce multiple copies of IABC intergrals
 Iteration Nr.   1
 **********************
 DD1Dir will call FoFMem   1 times, MxPair=        20
 NAB=    10 NAA=     0 NBB=     0.
 MP4(R+Q)=  0.23511819D-02
 E3=       -0.15276081D-01        EUMP3=      -0.45891051240D+03
 E4(DQ)=   -0.27841732D-03        UMP4(DQ)=   -0.45891079082D+03
 E4(SDQ)=  -0.68006100D-03        UMP4(SDQ)=  -0.45891119246D+03
 DE(Corr)= -0.16534342     E(Corr)=     -458.90814412    
 NORM(A)=   0.10269899D+01
 Iteration Nr.   2
 **********************
 DD1Dir will call FoFMem   1 times, MxPair=        20
 NAB=    10 NAA=     0 NBB=     0.
 DE(Corr)= -0.16782424     E(CORR)=     -458.91062493     Delta=-2.48D-03
 NORM(A)=   0.10277565D+01
 Iteration Nr.   3
 **********************
 DD1Dir will call FoFMem   1 times, MxPair=        20
 NAB=    10 NAA=     0 NBB=     0.
 DE(Corr)= -0.16829703     E(CORR)=     -458.91109772     Delta=-4.73D-04
 NORM(A)=   0.10278473D+01
 Iteration Nr.   4
 **********************
 DD1Dir will call FoFMem   1 times, MxPair=        20
 NAB=    10 NAA=     0 NBB=     0.
 DE(Corr)= -0.16835700     E(CORR)=     -458.91115770     Delta=-6.00D-05
 NORM(A)=   0.10278590D+01
 Iteration Nr.   5
 **********************
 DD1Dir will call FoFMem   1 times, MxPair=        20
 NAB=    10 NAA=     0 NBB=     0.
 DE(Corr)= -0.16835926     E(CORR)=     -458.91115996     Delta=-2.26D-06
 NORM(A)=   0.10278592D+01
 Iteration Nr.   6
 **********************
 DD1Dir will call FoFMem   1 times, MxPair=        20
 NAB=    10 NAA=     0 NBB=     0.
 DE(Corr)= -0.16835917     E(CORR)=     -458.91115986     Delta= 9.54D-08
 NORM(A)=   0.10278592D+01
 Wavefunction amplitudes converged. E(Corr)=     -458.91115986    
 Largest amplitude= 3.49D-02
 Time for triples=        0.22 seconds.
 T4(CCSD)= -0.26486000D-02
 T5(CCSD)=  0.52750454D-04
 CCSD(T)= -0.45891375571D+03
 Discarding MO integrals.

 **********************************************************************

            Population analysis using the SCF Density.

 **********************************************************************

 Orbital symmetries:
       Occupied  (SG) (SG) (SG) (PI) (PI) (SG) (SG) (PI) (PI)
       Virtual   (SG) (SG) (PI) (PI) (SG) (SG) (PI) (PI) (SG) (PI)
                 (PI) (DLTA) (DLTA) (SG) (SG) (PI) (PI) (SG) (SG)
                 (PI) (PI) (SG) (SG) (PI) (PI) (SG) (SG)
 The electronic state is 1-SG.
 Alpha  occ. eigenvalues -- -104.81266 -10.62337  -8.12076  -8.06120  -8.06120
 Alpha  occ. eigenvalues --   -1.33147  -0.71263  -0.50081  -0.50081
 Alpha virt. eigenvalues --    0.07446   0.11438   0.12236   0.12236   0.34747
 Alpha virt. eigenvalues --    0.38779   0.57975   0.57975   0.66164   0.99292
 Alpha virt. eigenvalues --    0.99292   1.11699   1.11699   1.30167   1.37896
 Alpha virt. eigenvalues --    2.24928   2.24928   2.36803   2.57240   2.61500
 Alpha virt. eigenvalues --    2.61500   5.65775  10.51932  26.64901  26.64901
 Alpha virt. eigenvalues --   27.27152 219.50654
          Condensed to atoms (all electrons):
               1          2
     1  H    1.315288  -0.156011
     2  Cl  -0.156011  16.996734
 Mulliken charges:
               1
     1  H   -0.159277
     2  Cl   0.159277
 Sum of Mulliken charges =   0.00000
 Mulliken charges with hydrogens summed into heavy atoms:
               1
     2  Cl   0.000000
 Electronic spatial extent (au):  <R**2>=             29.2458
 Charge=              0.0000 electrons
 Dipole moment (field-independent basis, Debye):
    X=              0.0000    Y=              0.0000    Z=             -0.8381  Tot=              0.8381
 Quadrupole moment (field-independent basis, Debye-Ang):
   XX=            -13.2152   YY=            -13.2152   ZZ=            -11.2732
   XY=              0.0000   XZ=              0.0000   YZ=              0.0000
 Traceless Quadrupole moment (field-independent basis, Debye-Ang):
   XX=             -0.6473   YY=             -0.6473   ZZ=              1.2946
   XY=              0.0000   XZ=              0.0000   YZ=              0.0000
 Octapole moment (field-independent basis, Debye-Ang**2):
  XXX=              0.0000  YYY=              0.0000  ZZZ=             -1.3450  XYY=              0.0000
  XXY=              0.0000  XXZ=             -0.6629  XZZ=              0.0000  YZZ=              0.0000
  YYZ=             -0.6629  XYZ=              0.0000
 Hexadecapole moment (field-independent basis, Debye-Ang**3):
 XXXX=            -15.1939 YYYY=            -15.1939 ZZZZ=            -11.1694 XXXY=              0.0000
 XXXZ=              0.0000 YYYX=              0.0000 YYYZ=              0.0000 ZZZX=              0.0000
 ZZZY=              0.0000 XXYY=             -5.0646 XXZZ=             -4.4017 YYZZ=             -4.4017
 XXYZ=              0.0000 YYXZ=              0.0000 ZZXY=              0.0000
 N-N= 1.499335430940D+01 E-N=-1.125607305226D+03  KE= 4.635848114278D+02
 Symmetry A1   KE= 3.717157389391D+02
 Symmetry A2   KE= 0.000000000000D+00
 Symmetry B1   KE= 4.593453624431D+01
 Symmetry B2   KE= 4.593453624431D+01
 Variable Step   Value    
 -------- ---- -----------
     1       1    1.228322
 ---------------------------------------------------------------------------------------------------
                            Z-MATRIX (ANGSTROMS AND DEGREES)
   CD    Cent   Atom    N1       Length/X        N2       Alpha/Y        N3        Beta/Z          J
 ---------------------------------------------------------------------------------------------------
      1      1  H 
      2      2  Cl       1   0.650000(     1)
 ---------------------------------------------------------------------------------------------------
                         Z-Matrix orientation:                         
 ---------------------------------------------------------------------
 Center     Atomic      Atomic             Coordinates (Angstroms)
 Number     Number       Type             X           Y           Z
 ---------------------------------------------------------------------
      1          1           0        0.000000    0.000000    0.000000
      2         17           0        0.000000    0.000000    0.650000
 ---------------------------------------------------------------------
 Stoichiometry    ClH
 Framework group  C*V[C*(HCl)]
 Deg. of freedom     1
 Full point group                 C*V     NOp   4
 Largest Abelian subgroup         C2V     NOp   4
 Largest concise Abelian subgroup C1      NOp   1
                         Standard orientation:                         
 ---------------------------------------------------------------------
 Center     Atomic      Atomic             Coordinates (Angstroms)
 Number     Number       Type             X           Y           Z
 ---------------------------------------------------------------------
      1          1           0        0.000000    0.000000   -0.613889
      2         17           0        0.000000    0.000000    0.036111
 ---------------------------------------------------------------------
 Rotational constants (GHZ):           0.0000000        1221.0825234        1221.0825234
 Standard basis: 6-311+G(d,p) (5D, 7F)
 There are    20 symmetry adapted cartesian basis functions of A1  symmetry.
 There are     1 symmetry adapted cartesian basis functions of A2  symmetry.
 There are     8 symmetry adapted cartesian basis functions of B1  symmetry.
 There are     8 symmetry adapted cartesian basis functions of B2  symmetry.
 There are    19 symmetry adapted basis functions of A1  symmetry.
 There are     1 symmetry adapted basis functions of A2  symmetry.
 There are     8 symmetry adapted basis functions of B1  symmetry.
 There are     8 symmetry adapted basis functions of B2  symmetry.
    36 basis functions,    61 primitive gaussians,    37 cartesian basis functions
     9 alpha electrons        9 beta electrons
       nuclear repulsion energy        13.8400193625 Hartrees.
 NAtoms=    2 NActive=    2 NUniq=    2 SFac= 1.00D+00 NAtFMM=   60 NAOKFM=F Big=F
 Integral buffers will be    131072 words long.
 Raffenetti 1 integral format.
 Two-electron integral symmetry is turned on.
 One-electron integrals computed using PRISM.
 NBasis=    36 RedAO= T EigKep=  4.84D-03  NBF=    19     1     8     8
 NBsUse=    36 1.00D-06 EigRej= -1.00D+00 NBFU=    19     1     8     8
 Initial guess from the checkpoint file:  "/scratch-data/g16-scratch/Gau-129039.chk"
 B after Tr=     0.000000    0.000000   -0.000000
         Rot=    1.000000    0.000000    0.000000    0.000000 Ang=   0.00 deg.
 Initial guess orbital symmetries:
       Occupied  (SG) (SG) (SG) (PI) (PI) (SG) (SG) (PI) (PI)
       Virtual   (SG) (SG) (PI) (PI) (SG) (SG) (PI) (PI) (SG) (PI)
                 (PI) (DLTA) (DLTA) (SG) (SG) (PI) (PI) (SG) (SG)
                 (PI) (PI) (SG) (SG) (PI) (PI) (SG) (SG)
 ExpMin= 4.83D-02 ExpMax= 1.06D+05 ExpMxC= 3.62D+03 IAcc=3 IRadAn=         5 AccDes= 0.00D+00
 Harris functional with IExCor=  205 and IRadAn=       5 diagonalized for initial guess.
 HarFok:  IExCor=  205 AccDes= 0.00D+00 IRadAn=         5 IDoV= 1 UseB2=F ITyADJ=14
 ICtDFT=  3500011 ScaDFX=  1.000000  1.000000  1.000000  1.000000
 FoFCou: FMM=F IPFlag=           0 FMFlag=      100000 FMFlg1=           0
         NFxFlg=           0 DoJE=T BraDBF=F KetDBF=T FulRan=T
         wScrn=  0.000000 ICntrl=       500 IOpCl=  0 I1Cent=   200000004 NGrid=           0
         NMat0=    1 NMatS0=      1 NMatT0=    0 NMatD0=    1 NMtDS0=    0 NMtDT0=    0
 Petite list used in FoFCou.
 Keep R1 ints in memory in symmetry-blocked form, NReq=1059110.
 Requested convergence on RMS density matrix=1.00D-08 within 128 cycles.
 Requested convergence on MAX density matrix=1.00D-06.
 Requested convergence on             energy=1.00D-06.
 No special actions if energy rises.
 SCF Done:  E(RHF) =  -459.089967837     A.U. after   10 cycles
            NFock= 10  Conv=0.24D-08     -V/T= 1.9914
 ExpMin= 4.83D-02 ExpMax= 1.06D+05 ExpMxC= 3.62D+03 IAcc=3 IRadAn=         5 AccDes= 0.00D+00
 HarFok:  IExCor=  205 AccDes= 0.00D+00 IRadAn=         5 IDoV=-2 UseB2=F ITyADJ=14
 ICtDFT= 12500011 ScaDFX=  1.000000  1.000000  1.000000  1.000000
 Range of M.O.s used for correlation:     6    36
 NBasis=    36 NAE=     9 NBE=     9 NFC=     5 NFV=     0
 NROrb=     31 NOA=     4 NOB=     4 NVA=    27 NVB=    27
 Semi-Direct transformation.
 ModeAB=           2 MOrb=             4 LenV=     104662558
 LASXX=        14355 LTotXX=       14355 LenRXX=       14355
 LTotAB=       16240 MaxLAS=       87172 LenRXY=       87172
 NonZer=       92008 LenScr=      785920 LnRSAI=           0
 LnScr1=           0 LExtra=           0 Total=       887447
 MaxDsk=          -1 SrtSym=           F ITran=            4
 JobTyp=0 Pass  1:  I=   1 to   4.
 (rs|ai) integrals will be sorted in core.
 Spin components of T(2) and E(2):
     alpha-alpha T2 =       0.5872712023D-02 E2=     -0.1895952020D-01
     alpha-beta  T2 =       0.3345167951D-01 E2=     -0.1134486618D+00
     beta-beta   T2 =       0.5872712023D-02 E2=     -0.1895952020D-01
 ANorm=    0.1022348817D+01
 E2 =    -0.1513677023D+00 EUMP2 =    -0.45924133553953D+03
 Keep R2 and R3 ints in memory in symmetry-blocked form, NReq=1061796.
 CIDS: In Core Option IDoMem=           1.
 Iterations=  50 Convergence= 0.100D-06
 Produce multiple copies of IABC intergrals
 Iteration Nr.   1
 **********************
 DD1Dir will call FoFMem   1 times, MxPair=        20
 NAB=    10 NAA=     0 NBB=     0.
 MP4(R+Q)=  0.23308819D-02
 E3=       -0.15189987D-01        EUMP3=      -0.45925652553D+03
 E4(DQ)=   -0.28492066D-03        UMP4(DQ)=   -0.45925681045D+03
 E4(SDQ)=  -0.69049891D-03        UMP4(SDQ)=  -0.45925721603D+03
 DE(Corr)= -0.16420900     E(Corr)=     -459.25417684    
 NORM(A)=   0.10269591D+01
 Iteration Nr.   2
 **********************
 DD1Dir will call FoFMem   1 times, MxPair=        20
 NAB=    10 NAA=     0 NBB=     0.
 DE(Corr)= -0.16668390     E(CORR)=     -459.25665174     Delta=-2.47D-03
 NORM(A)=   0.10277255D+01
 Iteration Nr.   3
 **********************
 DD1Dir will call FoFMem   1 times, MxPair=        20
 NAB=    10 NAA=     0 NBB=     0.
 DE(Corr)= -0.16715276     E(CORR)=     -459.25712059     Delta=-4.69D-04
 NORM(A)=   0.10278168D+01
 Iteration Nr.   4
 **********************
 DD1Dir will call FoFMem   1 times, MxPair=        20
 NAB=    10 NAA=     0 NBB=     0.
 DE(Corr)= -0.16721324     E(CORR)=     -459.25718107     Delta=-6.05D-05
 NORM(A)=   0.10278287D+01
 Iteration Nr.   5
 **********************
 DD1Dir will call FoFMem   1 times, MxPair=        20
 NAB=    10 NAA=     0 NBB=     0.
 DE(Corr)= -0.16721554     E(CORR)=     -459.25718337     Delta=-2.30D-06
 NORM(A)=   0.10278289D+01
 Iteration Nr.   6
 **********************
 DD1Dir will call FoFMem   1 times, MxPair=        20
 NAB=    10 NAA=     0 NBB=     0.
 DE(Corr)= -0.16721544     E(CORR)=     -459.25718327     Delta= 1.00D-07
 NORM(A)=   0.10278289D+01
 Iteration Nr.   7
 **********************
 DD1Dir will call FoFMem   1 times, MxPair=        20
 NAB=    10 NAA=     0 NBB=     0.
 DE(Corr)= -0.16721544     E(CORR)=     -459.25718327     Delta= 3.52D-10
 NORM(A)=   0.10278289D+01
 Wavefunction amplitudes converged. E(Corr)=     -459.25718327    
 Largest amplitude= 3.49D-02
 Time for triples=        0.22 seconds.
 T4(CCSD)= -0.26361079D-02
 T5(CCSD)=  0.53527102D-04
 CCSD(T)= -0.45925976585D+03
 Discarding MO integrals.
 Variable Step   Value    
 -------- ---- -----------
     1       2    1.322808
 ---------------------------------------------------------------------------------------------------
                            Z-MATRIX (ANGSTROMS AND DEGREES)
   CD    Cent   Atom    N1       Length/X        N2       Alpha/Y        N3        Beta/Z          J
 ---------------------------------------------------------------------------------------------------
      1      1  H 
      2      2  Cl       1   0.700000(     1)
 ---------------------------------------------------------------------------------------------------
                         Z-Matrix orientation:                         
 ---------------------------------------------------------------------
 Center     Atomic      Atomic             Coordinates (Angstroms)
 Number     Number       Type             X           Y           Z
 ---------------------------------------------------------------------
      1          1           0        0.000000    0.000000    0.000000
      2         17           0        0.000000    0.000000    0.700000
 ---------------------------------------------------------------------
 Stoichiometry    ClH
 Framework group  C*V[C*(HCl)]
 Deg. of freedom     1
 Full point group                 C*V     NOp   4
 Largest Abelian subgroup         C2V     NOp   4
 Largest concise Abelian subgroup C1      NOp   1
                         Standard orientation:                         
 ---------------------------------------------------------------------
 Center     Atomic      Atomic             Coordinates (Angstroms)
 Number     Number       Type             X           Y           Z
 ---------------------------------------------------------------------
      1          1           0        0.000000    0.000000   -0.661111
      2         17           0        0.000000    0.000000    0.038889
 ---------------------------------------------------------------------
 Rotational constants (GHZ):           0.0000000        1052.8721758        1052.8721758
 Standard basis: 6-311+G(d,p) (5D, 7F)
 There are    20 symmetry adapted cartesian basis functions of A1  symmetry.
 There are     1 symmetry adapted cartesian basis functions of A2  symmetry.
 There are     8 symmetry adapted cartesian basis functions of B1  symmetry.
 There are     8 symmetry adapted cartesian basis functions of B2  symmetry.
 There are    19 symmetry adapted basis functions of A1  symmetry.
 There are     1 symmetry adapted basis functions of A2  symmetry.
 There are     8 symmetry adapted basis functions of B1  symmetry.
 There are     8 symmetry adapted basis functions of B2  symmetry.
    36 basis functions,    61 primitive gaussians,    37 cartesian basis functions
     9 alpha electrons        9 beta electrons
       nuclear repulsion energy        12.8514465509 Hartrees.
 NAtoms=    2 NActive=    2 NUniq=    2 SFac= 1.00D+00 NAtFMM=   60 NAOKFM=F Big=F
 Integral buffers will be    131072 words long.
 Raffenetti 1 integral format.
 Two-electron integral symmetry is turned on.
 One-electron integrals computed using PRISM.
 NBasis=    36 RedAO= T EigKep=  5.32D-03  NBF=    19     1     8     8
 NBsUse=    36 1.00D-06 EigRej= -1.00D+00 NBFU=    19     1     8     8
 Initial guess from the checkpoint file:  "/scratch-data/g16-scratch/Gau-129039.chk"
 B after Tr=     0.000000    0.000000    0.000000
         Rot=    1.000000    0.000000    0.000000    0.000000 Ang=   0.00 deg.
 Initial guess orbital symmetries:
       Occupied  (SG) (SG) (SG) (PI) (PI) (SG) (SG) (PI) (PI)
       Virtual   (SG) (SG) (PI) (PI) (SG) (SG) (PI) (PI) (SG) (PI)
                 (PI) (DLTA) (DLTA) (SG) (SG) (PI) (PI) (SG) (SG)
                 (PI) (PI) (SG) (SG) (PI) (PI) (SG) (SG)
 ExpMin= 4.83D-02 ExpMax= 1.06D+05 ExpMxC= 3.62D+03 IAcc=3 IRadAn=         5 AccDes= 0.00D+00
 Harris functional with IExCor=  205 and IRadAn=       5 diagonalized for initial guess.
 HarFok:  IExCor=  205 AccDes= 0.00D+00 IRadAn=         5 IDoV= 1 UseB2=F ITyADJ=14
 ICtDFT=  3500011 ScaDFX=  1.000000  1.000000  1.000000  1.000000
 FoFCou: FMM=F IPFlag=           0 FMFlag=      100000 FMFlg1=           0
         NFxFlg=           0 DoJE=T BraDBF=F KetDBF=T FulRan=T
         wScrn=  0.000000 ICntrl=       500 IOpCl=  0 I1Cent=   200000004 NGrid=           0
         NMat0=    1 NMatS0=      1 NMatT0=    0 NMatD0=    1 NMtDS0=    0 NMtDT0=    0
 Petite list used in FoFCou.
 Keep R1 ints in memory in symmetry-blocked form, NReq=1059110.
 Requested convergence on RMS density matrix=1.00D-08 within 128 cycles.
 Requested convergence on MAX density matrix=1.00D-06.
 Requested convergence on             energy=1.00D-06.
 No special actions if energy rises.
 SCF Done:  E(RHF) =  -459.354103113     A.U. after   10 cycles
            NFock= 10  Conv=0.18D-08     -V/T= 1.9930
 ExpMin= 4.83D-02 ExpMax= 1.06D+05 ExpMxC= 3.62D+03 IAcc=3 IRadAn=         5 AccDes= 0.00D+00
 HarFok:  IExCor=  205 AccDes= 0.00D+00 IRadAn=         5 IDoV=-2 UseB2=F ITyADJ=14
 ICtDFT= 12500011 ScaDFX=  1.000000  1.000000  1.000000  1.000000
 Range of M.O.s used for correlation:     6    36
 NBasis=    36 NAE=     9 NBE=     9 NFC=     5 NFV=     0
 NROrb=     31 NOA=     4 NOB=     4 NVA=    27 NVB=    27
 Semi-Direct transformation.
 ModeAB=           2 MOrb=             4 LenV=     104662586
 LASXX=        14355 LTotXX=       14355 LenRXX=       14355
 LTotAB=       16240 MaxLAS=       87172 LenRXY=       87172
 NonZer=       92008 LenScr=      785920 LnRSAI=           0
 LnScr1=           0 LExtra=           0 Total=       887447
 MaxDsk=          -1 SrtSym=           F ITran=            4
 JobTyp=0 Pass  1:  I=   1 to   4.
 (rs|ai) integrals will be sorted in core.
 Spin components of T(2) and E(2):
     alpha-alpha T2 =       0.5867189248D-02 E2=     -0.1883856735D-01
     alpha-beta  T2 =       0.3348402419D-01 E2=     -0.1128808745D+00
     beta-beta   T2 =       0.5867189248D-02 E2=     -0.1883856735D-01
 ANorm=    0.1022359234D+01
 E2 =    -0.1505580092D+00 EUMP2 =    -0.45950466112260D+03
 Keep R2 and R3 ints in memory in symmetry-blocked form, NReq=1061796.
 CIDS: In Core Option IDoMem=           1.
 Iterations=  50 Convergence= 0.100D-06
 Produce multiple copies of IABC intergrals
 Iteration Nr.   1
 **********************
 DD1Dir will call FoFMem   1 times, MxPair=        20
 NAB=    10 NAA=     0 NBB=     0.
 MP4(R+Q)=  0.23175175D-02
 E3=       -0.15122202D-01        EUMP3=      -0.45951978332D+03
 E4(DQ)=   -0.29188370D-03        UMP4(DQ)=   -0.45952007521D+03
 E4(SDQ)=  -0.70091808D-03        UMP4(SDQ)=  -0.45952048424D+03
 DE(Corr)= -0.16334409     E(Corr)=     -459.51744721    
 NORM(A)=   0.10269814D+01
 Iteration Nr.   2
 **********************
 DD1Dir will call FoFMem   1 times, MxPair=        20
 NAB=    10 NAA=     0 NBB=     0.
 DE(Corr)= -0.16581813     E(CORR)=     -459.51992125     Delta=-2.47D-03
 NORM(A)=   0.10277496D+01
 Iteration Nr.   3
 **********************
 DD1Dir will call FoFMem   1 times, MxPair=        20
 NAB=    10 NAA=     0 NBB=     0.
 DE(Corr)= -0.16628468     E(CORR)=     -459.52038779     Delta=-4.67D-04
 NORM(A)=   0.10278414D+01
 Iteration Nr.   4
 **********************
 DD1Dir will call FoFMem   1 times, MxPair=        20
 NAB=    10 NAA=     0 NBB=     0.
 DE(Corr)= -0.16634590     E(CORR)=     -459.52044901     Delta=-6.12D-05
 NORM(A)=   0.10278535D+01
 Iteration Nr.   5
 **********************
 DD1Dir will call FoFMem   1 times, MxPair=        20
 NAB=    10 NAA=     0 NBB=     0.
 DE(Corr)= -0.16634825     E(CORR)=     -459.52045136     Delta=-2.35D-06
 NORM(A)=   0.10278537D+01
 Iteration Nr.   6
 **********************
 DD1Dir will call FoFMem   1 times, MxPair=        20
 NAB=    10 NAA=     0 NBB=     0.
 DE(Corr)= -0.16634814     E(CORR)=     -459.52045126     Delta= 1.05D-07
 NORM(A)=   0.10278537D+01
 Iteration Nr.   7
 **********************
 DD1Dir will call FoFMem   1 times, MxPair=        20
 NAB=    10 NAA=     0 NBB=     0.
 DE(Corr)= -0.16634814     E(CORR)=     -459.52045126     Delta= 1.65D-10
 NORM(A)=   0.10278538D+01
 Wavefunction amplitudes converged. E(Corr)=     -459.52045126    
 Largest amplitude= 3.47D-02
 Time for triples=        0.23 seconds.
 T4(CCSD)= -0.26327185D-02
 T5(CCSD)=  0.54285465D-04
 CCSD(T)= -0.45952302969D+03
 Discarding MO integrals.
 Variable Step   Value    
 -------- ---- -----------
     1       3    1.417295
 ---------------------------------------------------------------------------------------------------
                            Z-MATRIX (ANGSTROMS AND DEGREES)
   CD    Cent   Atom    N1       Length/X        N2       Alpha/Y        N3        Beta/Z          J
 ---------------------------------------------------------------------------------------------------
      1      1  H 
      2      2  Cl       1   0.750000(     1)
 ---------------------------------------------------------------------------------------------------
                         Z-Matrix orientation:                         
 ---------------------------------------------------------------------
 Center     Atomic      Atomic             Coordinates (Angstroms)
 Number     Number       Type             X           Y           Z
 ---------------------------------------------------------------------
      1          1           0        0.000000    0.000000    0.000000
      2         17           0        0.000000    0.000000    0.750000
 ---------------------------------------------------------------------
 Stoichiometry    ClH
 Framework group  C*V[C*(HCl)]
 Deg. of freedom     1
 Full point group                 C*V     NOp   4
 Largest Abelian subgroup         C2V     NOp   4
 Largest concise Abelian subgroup C1      NOp   1
                         Standard orientation:                         
 ---------------------------------------------------------------------
 Center     Atomic      Atomic             Coordinates (Angstroms)
 Number     Number       Type             X           Y           Z
 ---------------------------------------------------------------------
      1          1           0        0.000000    0.000000   -0.708333
      2         17           0        0.000000    0.000000    0.041667
 ---------------------------------------------------------------------
 Rotational constants (GHZ):           0.0000000         917.1686509         917.1686509
 Standard basis: 6-311+G(d,p) (5D, 7F)
 There are    20 symmetry adapted cartesian basis functions of A1  symmetry.
 There are     1 symmetry adapted cartesian basis functions of A2  symmetry.
 There are     8 symmetry adapted cartesian basis functions of B1  symmetry.
 There are     8 symmetry adapted cartesian basis functions of B2  symmetry.
 There are    19 symmetry adapted basis functions of A1  symmetry.
 There are     1 symmetry adapted basis functions of A2  symmetry.
 There are     8 symmetry adapted basis functions of B1  symmetry.
 There are     8 symmetry adapted basis functions of B2  symmetry.
    36 basis functions,    61 primitive gaussians,    37 cartesian basis functions
     9 alpha electrons        9 beta electrons
       nuclear repulsion energy        11.9946834475 Hartrees.
 NAtoms=    2 NActive=    2 NUniq=    2 SFac= 1.00D+00 NAtFMM=   60 NAOKFM=F Big=F
 Integral buffers will be    131072 words long.
 Raffenetti 1 integral format.
 Two-electron integral symmetry is turned on.
 One-electron integrals computed using PRISM.
 NBasis=    36 RedAO= T EigKep=  5.99D-03  NBF=    19     1     8     8
 NBsUse=    36 1.00D-06 EigRej= -1.00D+00 NBFU=    19     1     8     8
 Initial guess from the checkpoint file:  "/scratch-data/g16-scratch/Gau-129039.chk"
 B after Tr=     0.000000    0.000000   -0.000000
         Rot=    1.000000    0.000000    0.000000    0.000000 Ang=   0.00 deg.
 Initial guess orbital symmetries:
       Occupied  (SG) (SG) (SG) (PI) (PI) (SG) (SG) (PI) (PI)
       Virtual   (SG) (SG) (PI) (PI) (SG) (SG) (PI) (PI) (SG) (PI)
                 (PI) (DLTA) (DLTA) (SG) (SG) (PI) (PI) (SG) (SG)
                 (PI) (PI) (SG) (SG) (PI) (PI) (SG) (SG)
 ExpMin= 4.83D-02 ExpMax= 1.06D+05 ExpMxC= 3.62D+03 IAcc=3 IRadAn=         5 AccDes= 0.00D+00
 Harris functional with IExCor=  205 and IRadAn=       5 diagonalized for initial guess.
 HarFok:  IExCor=  205 AccDes= 0.00D+00 IRadAn=         5 IDoV= 1 UseB2=F ITyADJ=14
 ICtDFT=  3500011 ScaDFX=  1.000000  1.000000  1.000000  1.000000
 FoFCou: FMM=F IPFlag=           0 FMFlag=      100000 FMFlg1=           0
         NFxFlg=           0 DoJE=T BraDBF=F KetDBF=T FulRan=T
         wScrn=  0.000000 ICntrl=       500 IOpCl=  0 I1Cent=   200000004 NGrid=           0
         NMat0=    1 NMatS0=      1 NMatT0=    0 NMatD0=    1 NMtDS0=    0 NMtDT0=    0
 Petite list used in FoFCou.
 Keep R1 ints in memory in symmetry-blocked form, NReq=1059096.
 Requested convergence on RMS density matrix=1.00D-08 within 128 cycles.
 Requested convergence on MAX density matrix=1.00D-06.
 Requested convergence on             energy=1.00D-06.
 No special actions if energy rises.
 SCF Done:  E(RHF) =  -459.554689144     A.U. after   10 cycles
            NFock= 10  Conv=0.13D-08     -V/T= 1.9943
 ExpMin= 4.83D-02 ExpMax= 1.06D+05 ExpMxC= 3.62D+03 IAcc=3 IRadAn=         5 AccDes= 0.00D+00
 HarFok:  IExCor=  205 AccDes= 0.00D+00 IRadAn=         5 IDoV=-2 UseB2=F ITyADJ=14
 ICtDFT= 12500011 ScaDFX=  1.000000  1.000000  1.000000  1.000000
 Range of M.O.s used for correlation:     6    36
 NBasis=    36 NAE=     9 NBE=     9 NFC=     5 NFV=     0
 NROrb=     31 NOA=     4 NOB=     4 NVA=    27 NVB=    27
 Semi-Direct transformation.
 ModeAB=           2 MOrb=             4 LenV=     104662586
 LASXX=        14355 LTotXX=       14355 LenRXX=       14355
 LTotAB=       16240 MaxLAS=       87172 LenRXY=       87172
 NonZer=       92008 LenScr=      785920 LnRSAI=           0
 LnScr1=           0 LExtra=           0 Total=       887447
 MaxDsk=          -1 SrtSym=           F ITran=            4
 JobTyp=0 Pass  1:  I=   1 to   4.
 (rs|ai) integrals will be sorted in core.
 Spin components of T(2) and E(2):
     alpha-alpha T2 =       0.5871474686D-02 E2=     -0.1873839190D-01
     alpha-beta  T2 =       0.3358091235D-01 E2=     -0.1124918009D+00
     beta-beta   T2 =       0.5871474686D-02 E2=     -0.1873839190D-01
 ANorm=    0.1022410809D+01
 E2 =    -0.1499685847D+00 EUMP2 =    -0.45970465772867D+03
 Keep R2 and R3 ints in memory in symmetry-blocked form, NReq=1061782.
 CIDS: In Core Option IDoMem=           1.
 Iterations=  50 Convergence= 0.100D-06
 Produce multiple copies of IABC intergrals
 Iteration Nr.   1
 **********************
 DD1Dir will call FoFMem   1 times, MxPair=        20
 NAB=    10 NAA=     0 NBB=     0.
 MP4(R+Q)=  0.23100826D-02
 E3=       -0.15073128D-01        EUMP3=      -0.45971973086D+03
 E4(DQ)=   -0.29993807D-03        UMP4(DQ)=   -0.45972003079D+03
 E4(SDQ)=  -0.71284771D-03        UMP4(SDQ)=  -0.45972044370D+03
 DE(Corr)= -0.16271220     E(Corr)=     -459.71740134    
 NORM(A)=   0.10270484D+01
 Iteration Nr.   2
 **********************
 DD1Dir will call FoFMem   1 times, MxPair=        20
 NAB=    10 NAA=     0 NBB=     0.
 DE(Corr)= -0.16519117     E(CORR)=     -459.71988032     Delta=-2.48D-03
 NORM(A)=   0.10278211D+01
 Iteration Nr.   3
 **********************
 DD1Dir will call FoFMem   1 times, MxPair=        20
 NAB=    10 NAA=     0 NBB=     0.
 DE(Corr)= -0.16565716     E(CORR)=     -459.72034630     Delta=-4.66D-04
 NORM(A)=   0.10279134D+01
 Iteration Nr.   4
 **********************
 DD1Dir will call FoFMem   1 times, MxPair=        20
 NAB=    10 NAA=     0 NBB=     0.
 DE(Corr)= -0.16571937     E(CORR)=     -459.72040852     Delta=-6.22D-05
 NORM(A)=   0.10279258D+01
 Iteration Nr.   5
 **********************
 DD1Dir will call FoFMem   1 times, MxPair=        20
 NAB=    10 NAA=     0 NBB=     0.
 DE(Corr)= -0.16572178     E(CORR)=     -459.72041092     Delta=-2.41D-06
 NORM(A)=   0.10279260D+01
 Iteration Nr.   6
 **********************
 DD1Dir will call FoFMem   1 times, MxPair=        20
 NAB=    10 NAA=     0 NBB=     0.
 DE(Corr)= -0.16572167     E(CORR)=     -459.72041081     Delta= 1.10D-07
 NORM(A)=   0.10279260D+01
 Iteration Nr.   7
 **********************
 DD1Dir will call FoFMem   1 times, MxPair=        20
 NAB=    10 NAA=     0 NBB=     0.
 DE(Corr)= -0.16572167     E(CORR)=     -459.72041081     Delta= 2.94D-10
 NORM(A)=   0.10279260D+01
 Wavefunction amplitudes converged. E(Corr)=     -459.72041081    
 Largest amplitude= 3.45D-02
 Time for triples=        0.23 seconds.
 T4(CCSD)= -0.26387611D-02
 T5(CCSD)=  0.55061799D-04
 CCSD(T)= -0.45972299451D+03
 Discarding MO integrals.
 Variable Step   Value    
 -------- ---- -----------
     1       4    1.511781
 ---------------------------------------------------------------------------------------------------
                            Z-MATRIX (ANGSTROMS AND DEGREES)
   CD    Cent   Atom    N1       Length/X        N2       Alpha/Y        N3        Beta/Z          J
 ---------------------------------------------------------------------------------------------------
      1      1  H 
      2      2  Cl       1   0.800000(     1)
 ---------------------------------------------------------------------------------------------------
                         Z-Matrix orientation:                         
 ---------------------------------------------------------------------
 Center     Atomic      Atomic             Coordinates (Angstroms)
 Number     Number       Type             X           Y           Z
 ---------------------------------------------------------------------
      1          1           0        0.000000    0.000000    0.000000
      2         17           0        0.000000    0.000000    0.800000
 ---------------------------------------------------------------------
 Stoichiometry    ClH
 Framework group  C*V[C*(HCl)]
 Deg. of freedom     1
 Full point group                 C*V     NOp   4
 Largest Abelian subgroup         C2V     NOp   4
 Largest concise Abelian subgroup C1      NOp   1
                         Standard orientation:                         
 ---------------------------------------------------------------------
 Center     Atomic      Atomic             Coordinates (Angstroms)
 Number     Number       Type             X           Y           Z
 ---------------------------------------------------------------------
      1          1           0        0.000000    0.000000   -0.755556
      2         17           0        0.000000    0.000000    0.044444
 ---------------------------------------------------------------------
 Rotational constants (GHZ):           0.0000000         806.1052596         806.1052596
 Standard basis: 6-311+G(d,p) (5D, 7F)
 There are    20 symmetry adapted cartesian basis functions of A1  symmetry.
 There are     1 symmetry adapted cartesian basis functions of A2  symmetry.
 There are     8 symmetry adapted cartesian basis functions of B1  symmetry.
 There are     8 symmetry adapted cartesian basis functions of B2  symmetry.
 There are    19 symmetry adapted basis functions of A1  symmetry.
 There are     1 symmetry adapted basis functions of A2  symmetry.
 There are     8 symmetry adapted basis functions of B1  symmetry.
 There are     8 symmetry adapted basis functions of B2  symmetry.
    36 basis functions,    61 primitive gaussians,    37 cartesian basis functions
     9 alpha electrons        9 beta electrons
       nuclear repulsion energy        11.2450157321 Hartrees.
 NAtoms=    2 NActive=    2 NUniq=    2 SFac= 1.00D+00 NAtFMM=   60 NAOKFM=F Big=F
 Integral buffers will be    131072 words long.
 Raffenetti 1 integral format.
 Two-electron integral symmetry is turned on.
 One-electron integrals computed using PRISM.
 NBasis=    36 RedAO= T EigKep=  6.89D-03  NBF=    19     1     8     8
 NBsUse=    36 1.00D-06 EigRej= -1.00D+00 NBFU=    19     1     8     8
 Initial guess from the checkpoint file:  "/scratch-data/g16-scratch/Gau-129039.chk"
 B after Tr=     0.000000    0.000000   -0.000000
         Rot=    1.000000    0.000000    0.000000    0.000000 Ang=   0.00 deg.
 Initial guess orbital symmetries:
       Occupied  (SG) (SG) (SG) (PI) (PI) (SG) (SG) (PI) (PI)
       Virtual   (SG) (SG) (PI) (PI) (SG) (SG) (PI) (PI) (SG) (PI)
                 (PI) (DLTA) (DLTA) (SG) (SG) (PI) (PI) (SG) (SG)
                 (PI) (PI) (SG) (SG) (PI) (PI) (SG) (SG)
 ExpMin= 4.83D-02 ExpMax= 1.06D+05 ExpMxC= 3.62D+03 IAcc=3 IRadAn=         5 AccDes= 0.00D+00
 Harris functional with IExCor=  205 and IRadAn=       5 diagonalized for initial guess.
 HarFok:  IExCor=  205 AccDes= 0.00D+00 IRadAn=         5 IDoV= 1 UseB2=F ITyADJ=14
 ICtDFT=  3500011 ScaDFX=  1.000000  1.000000  1.000000  1.000000
 FoFCou: FMM=F IPFlag=           0 FMFlag=      100000 FMFlg1=           0
         NFxFlg=           0 DoJE=T BraDBF=F KetDBF=T FulRan=T
         wScrn=  0.000000 ICntrl=       500 IOpCl=  0 I1Cent=   200000004 NGrid=           0
         NMat0=    1 NMatS0=      1 NMatT0=    0 NMatD0=    1 NMtDS0=    0 NMtDT0=    0
 Petite list used in FoFCou.
 Keep R1 ints in memory in symmetry-blocked form, NReq=1059082.
 Requested convergence on RMS density matrix=1.00D-08 within 128 cycles.
 Requested convergence on MAX density matrix=1.00D-06.
 Requested convergence on             energy=1.00D-06.
 No special actions if energy rises.
 SCF Done:  E(RHF) =  -459.706468828     A.U. after   10 cycles
            NFock= 10  Conv=0.11D-08     -V/T= 1.9954
 ExpMin= 4.83D-02 ExpMax= 1.06D+05 ExpMxC= 3.62D+03 IAcc=3 IRadAn=         5 AccDes= 0.00D+00
 HarFok:  IExCor=  205 AccDes= 0.00D+00 IRadAn=         5 IDoV=-2 UseB2=F ITyADJ=14
 ICtDFT= 12500011 ScaDFX=  1.000000  1.000000  1.000000  1.000000
 Range of M.O.s used for correlation:     6    36
 NBasis=    36 NAE=     9 NBE=     9 NFC=     5 NFV=     0
 NROrb=     31 NOA=     4 NOB=     4 NVA=    27 NVB=    27
 Semi-Direct transformation.
 ModeAB=           2 MOrb=             4 LenV=     104662586
 LASXX=        14355 LTotXX=       14355 LenRXX=       14355
 LTotAB=       16240 MaxLAS=       87172 LenRXY=       87172
 NonZer=       92008 LenScr=      785920 LnRSAI=           0
 LnScr1=           0 LExtra=           0 Total=       887447
 MaxDsk=          -1 SrtSym=           F ITran=            4
 JobTyp=0 Pass  1:  I=   1 to   4.
 (rs|ai) integrals will be sorted in core.
 Spin components of T(2) and E(2):
     alpha-alpha T2 =       0.5882821957D-02 E2=     -0.1865204021D-01
     alpha-beta  T2 =       0.3373358714D-01 E2=     -0.1122469279D+00
     beta-beta   T2 =       0.5882821957D-02 E2=     -0.1865204021D-01
 ANorm=    0.1022496568D+01
 E2 =    -0.1495510084D+00 EUMP2 =    -0.45985601983669D+03
 Keep R2 and R3 ints in memory in symmetry-blocked form, NReq=1061768.
 CIDS: In Core Option IDoMem=           1.
 Iterations=  50 Convergence= 0.100D-06
 Produce multiple copies of IABC intergrals
 Iteration Nr.   1
 **********************
 DD1Dir will call FoFMem   1 times, MxPair=        20
 NAB=    10 NAA=     0 NBB=     0.
 MP4(R+Q)=  0.23076189D-02
 E3=       -0.15038876D-01        EUMP3=      -0.45987105871D+03
 E4(DQ)=   -0.30918420D-03        UMP4(DQ)=   -0.45987136790D+03
 E4(SDQ)=  -0.72697859D-03        UMP4(SDQ)=  -0.45987178569D+03
 DE(Corr)= -0.16226199     E(Corr)=     -459.86873081    
 NORM(A)=   0.10271538D+01
 Iteration Nr.   2
 **********************
 DD1Dir will call FoFMem   1 times, MxPair=        20
 NAB=    10 NAA=     0 NBB=     0.
 DE(Corr)= -0.16475163     E(CORR)=     -459.87122046     Delta=-2.49D-03
 NORM(A)=   0.10279341D+01
 Iteration Nr.   3
 **********************
 DD1Dir will call FoFMem   1 times, MxPair=        20
 NAB=    10 NAA=     0 NBB=     0.
 DE(Corr)= -0.16521900     E(CORR)=     -459.87168783     Delta=-4.67D-04
 NORM(A)=   0.10280271D+01
 Iteration Nr.   4
 **********************
 DD1Dir will call FoFMem   1 times, MxPair=        20
 NAB=    10 NAA=     0 NBB=     0.
 DE(Corr)= -0.16528249     E(CORR)=     -459.87175132     Delta=-6.35D-05
 NORM(A)=   0.10280398D+01
 Iteration Nr.   5
 **********************
 DD1Dir will call FoFMem   1 times, MxPair=        20
 NAB=    10 NAA=     0 NBB=     0.
 DE(Corr)= -0.16528496     E(CORR)=     -459.87175379     Delta=-2.47D-06
 NORM(A)=   0.10280400D+01
 Iteration Nr.   6
 **********************
 DD1Dir will call FoFMem   1 times, MxPair=        20
 NAB=    10 NAA=     0 NBB=     0.
 DE(Corr)= -0.16528485     E(CORR)=     -459.87175368     Delta= 1.14D-07
 NORM(A)=   0.10280400D+01
 Iteration Nr.   7
 **********************
 DD1Dir will call FoFMem   1 times, MxPair=        20
 NAB=    10 NAA=     0 NBB=     0.
 DE(Corr)= -0.16528485     E(CORR)=     -459.87175368     Delta= 7.24D-10
 NORM(A)=   0.10280400D+01
 Wavefunction amplitudes converged. E(Corr)=     -459.87175368    
 Largest amplitude= 3.43D-02
 Time for triples=        0.23 seconds.
 T4(CCSD)= -0.26539777D-02
 T5(CCSD)=  0.55835987D-04
 CCSD(T)= -0.45987435182D+03
 Discarding MO integrals.
 Variable Step   Value    
 -------- ---- -----------
     1       5    1.606267
 ---------------------------------------------------------------------------------------------------
                            Z-MATRIX (ANGSTROMS AND DEGREES)
   CD    Cent   Atom    N1       Length/X        N2       Alpha/Y        N3        Beta/Z          J
 ---------------------------------------------------------------------------------------------------
      1      1  H 
      2      2  Cl       1   0.850000(     1)
 ---------------------------------------------------------------------------------------------------
                         Z-Matrix orientation:                         
 ---------------------------------------------------------------------
 Center     Atomic      Atomic             Coordinates (Angstroms)
 Number     Number       Type             X           Y           Z
 ---------------------------------------------------------------------
      1          1           0        0.000000    0.000000    0.000000
      2         17           0        0.000000    0.000000    0.850000
 ---------------------------------------------------------------------
 Stoichiometry    ClH
 Framework group  C*V[C*(HCl)]
 Deg. of freedom     1
 Full point group                 C*V     NOp   4
 Largest Abelian subgroup         C2V     NOp   4
 Largest concise Abelian subgroup C1      NOp   1
                         Standard orientation:                         
 ---------------------------------------------------------------------
 Center     Atomic      Atomic             Coordinates (Angstroms)
 Number     Number       Type             X           Y           Z
 ---------------------------------------------------------------------
      1          1           0        0.000000    0.000000   -0.802778
      2         17           0        0.000000    0.000000    0.047222
 ---------------------------------------------------------------------
 Rotational constants (GHZ):           0.0000000         714.0586382         714.0586382
 Standard basis: 6-311+G(d,p) (5D, 7F)
 There are    20 symmetry adapted cartesian basis functions of A1  symmetry.
 There are     1 symmetry adapted cartesian basis functions of A2  symmetry.
 There are     8 symmetry adapted cartesian basis functions of B1  symmetry.
 There are     8 symmetry adapted cartesian basis functions of B2  symmetry.
 There are    19 symmetry adapted basis functions of A1  symmetry.
 There are     1 symmetry adapted basis functions of A2  symmetry.
 There are     8 symmetry adapted basis functions of B1  symmetry.
 There are     8 symmetry adapted basis functions of B2  symmetry.
    36 basis functions,    61 primitive gaussians,    37 cartesian basis functions
     9 alpha electrons        9 beta electrons
       nuclear repulsion energy        10.5835442184 Hartrees.
 NAtoms=    2 NActive=    2 NUniq=    2 SFac= 1.00D+00 NAtFMM=   60 NAOKFM=F Big=F
 Integral buffers will be    131072 words long.
 Raffenetti 1 integral format.
 Two-electron integral symmetry is turned on.
 One-electron integrals computed using PRISM.
 NBasis=    36 RedAO= T EigKep=  7.99D-03  NBF=    19     1     8     8
 NBsUse=    36 1.00D-06 EigRej= -1.00D+00 NBFU=    19     1     8     8
 Initial guess from the checkpoint file:  "/scratch-data/g16-scratch/Gau-129039.chk"
 B after Tr=     0.000000    0.000000    0.000000
         Rot=    1.000000    0.000000    0.000000    0.000000 Ang=   0.00 deg.
 Initial guess orbital symmetries:
       Occupied  (SG) (SG) (SG) (PI) (PI) (SG) (SG) (PI) (PI)
       Virtual   (SG) (SG) (PI) (PI) (SG) (SG) (PI) (PI) (SG) (PI)
                 (PI) (DLTA) (DLTA) (SG) (SG) (PI) (PI) (SG) (SG)
                 (PI) (PI) (SG) (SG) (PI) (PI) (SG) (SG)
 ExpMin= 4.83D-02 ExpMax= 1.06D+05 ExpMxC= 3.62D+03 IAcc=3 IRadAn=         5 AccDes= 0.00D+00
 Harris functional with IExCor=  205 and IRadAn=       5 diagonalized for initial guess.
 HarFok:  IExCor=  205 AccDes= 0.00D+00 IRadAn=         5 IDoV= 1 UseB2=F ITyADJ=14
 ICtDFT=  3500011 ScaDFX=  1.000000  1.000000  1.000000  1.000000
 FoFCou: FMM=F IPFlag=           0 FMFlag=      100000 FMFlg1=           0
         NFxFlg=           0 DoJE=T BraDBF=F KetDBF=T FulRan=T
         wScrn=  0.000000 ICntrl=       500 IOpCl=  0 I1Cent=   200000004 NGrid=           0
         NMat0=    1 NMatS0=      1 NMatT0=    0 NMatD0=    1 NMtDS0=    0 NMtDT0=    0
 Petite list used in FoFCou.
 Keep R1 ints in memory in symmetry-blocked form, NReq=1059082.
 Requested convergence on RMS density matrix=1.00D-08 within 128 cycles.
 Requested convergence on MAX density matrix=1.00D-06.
 Requested convergence on             energy=1.00D-06.
 No special actions if energy rises.
 SCF Done:  E(RHF) =  -459.820695436     A.U. after   10 cycles
            NFock= 10  Conv=0.14D-08     -V/T= 1.9963
 ExpMin= 4.83D-02 ExpMax= 1.06D+05 ExpMxC= 3.62D+03 IAcc=3 IRadAn=         5 AccDes= 0.00D+00
 HarFok:  IExCor=  205 AccDes= 0.00D+00 IRadAn=         5 IDoV=-2 UseB2=F ITyADJ=14
 ICtDFT= 12500011 ScaDFX=  1.000000  1.000000  1.000000  1.000000
 Range of M.O.s used for correlation:     6    36
 NBasis=    36 NAE=     9 NBE=     9 NFC=     5 NFV=     0
 NROrb=     31 NOA=     4 NOB=     4 NVA=    27 NVB=    27
 Semi-Direct transformation.
 ModeAB=           2 MOrb=             4 LenV=     104662600
 LASXX=        14355 LTotXX=       14355 LenRXX=       14355
 LTotAB=       16240 MaxLAS=       87172 LenRXY=       87172
 NonZer=       92008 LenScr=      785920 LnRSAI=           0
 LnScr1=           0 LExtra=           0 Total=       887447
 MaxDsk=          -1 SrtSym=           F ITran=            4
 JobTyp=0 Pass  1:  I=   1 to   4.
 (rs|ai) integrals will be sorted in core.
 Spin components of T(2) and E(2):
     alpha-alpha T2 =       0.5899348260D-02 E2=     -0.1857521281D-01
     alpha-beta  T2 =       0.3393645251D-01 E2=     -0.1121109833D+00
     beta-beta   T2 =       0.5899348260D-02 E2=     -0.1857521281D-01
 ANorm=    0.1022611925D+01
 E2 =    -0.1492614089D+00 EUMP2 =    -0.45996995684523D+03
 Keep R2 and R3 ints in memory in symmetry-blocked form, NReq=1061768.
 CIDS: In Core Option IDoMem=           1.
 Iterations=  50 Convergence= 0.100D-06
 Produce multiple copies of IABC intergrals
 Iteration Nr.   1
 **********************
 DD1Dir will call FoFMem   1 times, MxPair=        20
 NAB=    10 NAA=     0 NBB=     0.
 MP4(R+Q)=  0.23093563D-02
 E3=       -0.15015050D-01        EUMP3=      -0.45998497190D+03
 E4(DQ)=   -0.31981803D-03        UMP4(DQ)=   -0.45998529171D+03
 E4(SDQ)=  -0.74397916D-03        UMP4(SDQ)=  -0.45998571587D+03
 DE(Corr)= -0.16194599     E(Corr)=     -459.98264143    
 NORM(A)=   0.10272937D+01
 Iteration Nr.   2
 **********************
 DD1Dir will call FoFMem   1 times, MxPair=        20
 NAB=    10 NAA=     0 NBB=     0.
 DE(Corr)= -0.16445207     E(CORR)=     -459.98514750     Delta=-2.51D-03
 NORM(A)=   0.10280859D+01
 Iteration Nr.   3
 **********************
 DD1Dir will call FoFMem   1 times, MxPair=        20
 NAB=    10 NAA=     0 NBB=     0.
 DE(Corr)= -0.16492313     E(CORR)=     -459.98561856     Delta=-4.71D-04
 NORM(A)=   0.10281798D+01
 Iteration Nr.   4
 **********************
 DD1Dir will call FoFMem   1 times, MxPair=        20
 NAB=    10 NAA=     0 NBB=     0.
 DE(Corr)= -0.16498823     E(CORR)=     -459.98568366     Delta=-6.51D-05
 NORM(A)=   0.10281928D+01
 Iteration Nr.   5
 **********************
 DD1Dir will call FoFMem   1 times, MxPair=        20
 NAB=    10 NAA=     0 NBB=     0.
 DE(Corr)= -0.16499077     E(CORR)=     -459.98568621     Delta=-2.54D-06
 NORM(A)=   0.10281929D+01
 Iteration Nr.   6
 **********************
 DD1Dir will call FoFMem   1 times, MxPair=        20
 NAB=    10 NAA=     0 NBB=     0.
 DE(Corr)= -0.16499065     E(CORR)=     -459.98568609     Delta= 1.17D-07
 NORM(A)=   0.10281929D+01
 Iteration Nr.   7
 **********************
 DD1Dir will call FoFMem   1 times, MxPair=        20
 NAB=    10 NAA=     0 NBB=     0.
 DE(Corr)= -0.16499065     E(CORR)=     -459.98568609     Delta= 1.48D-09
 NORM(A)=   0.10281929D+01
 Wavefunction amplitudes converged. E(Corr)=     -459.98568609    
 Largest amplitude= 3.39D-02
 Time for triples=        0.23 seconds.
 T4(CCSD)= -0.26778304D-02
 T5(CCSD)=  0.56583493D-04
 CCSD(T)= -0.45998830734D+03
 Discarding MO integrals.
 Variable Step   Value    
 -------- ---- -----------
     1       6    1.700754
 ---------------------------------------------------------------------------------------------------
                            Z-MATRIX (ANGSTROMS AND DEGREES)
   CD    Cent   Atom    N1       Length/X        N2       Alpha/Y        N3        Beta/Z          J
 ---------------------------------------------------------------------------------------------------
      1      1  H 
      2      2  Cl       1   0.900000(     1)
 ---------------------------------------------------------------------------------------------------
                         Z-Matrix orientation:                         
 ---------------------------------------------------------------------
 Center     Atomic      Atomic             Coordinates (Angstroms)
 Number     Number       Type             X           Y           Z
 ---------------------------------------------------------------------
      1          1           0        0.000000    0.000000    0.000000
      2         17           0        0.000000    0.000000    0.900000
 ---------------------------------------------------------------------
 Stoichiometry    ClH
 Framework group  C*V[C*(HCl)]
 Deg. of freedom     1
 Full point group                 C*V     NOp   4
 Largest Abelian subgroup         C2V     NOp   4
 Largest concise Abelian subgroup C1      NOp   1
                         Standard orientation:                         
 ---------------------------------------------------------------------
 Center     Atomic      Atomic             Coordinates (Angstroms)
 Number     Number       Type             X           Y           Z
 ---------------------------------------------------------------------
      1          1           0        0.000000    0.000000   -0.850000
      2         17           0        0.000000    0.000000    0.050000
 ---------------------------------------------------------------------
 Rotational constants (GHZ):           0.0000000         636.9226742         636.9226742
 Standard basis: 6-311+G(d,p) (5D, 7F)
 There are    20 symmetry adapted cartesian basis functions of A1  symmetry.
 There are     1 symmetry adapted cartesian basis functions of A2  symmetry.
 There are     8 symmetry adapted cartesian basis functions of B1  symmetry.
 There are     8 symmetry adapted cartesian basis functions of B2  symmetry.
 There are    19 symmetry adapted basis functions of A1  symmetry.
 There are     1 symmetry adapted basis functions of A2  symmetry.
 There are     8 symmetry adapted basis functions of B1  symmetry.
 There are     8 symmetry adapted basis functions of B2  symmetry.
    36 basis functions,    61 primitive gaussians,    37 cartesian basis functions
     9 alpha electrons        9 beta electrons
       nuclear repulsion energy         9.9955695396 Hartrees.
 NAtoms=    2 NActive=    2 NUniq=    2 SFac= 1.00D+00 NAtFMM=   60 NAOKFM=F Big=F
 Integral buffers will be    131072 words long.
 Raffenetti 1 integral format.
 Two-electron integral symmetry is turned on.
 One-electron integrals computed using PRISM.
 NBasis=    36 RedAO= T EigKep=  9.29D-03  NBF=    19     1     8     8
 NBsUse=    36 1.00D-06 EigRej= -1.00D+00 NBFU=    19     1     8     8
 Initial guess from the checkpoint file:  "/scratch-data/g16-scratch/Gau-129039.chk"
 B after Tr=     0.000000    0.000000   -0.000000
         Rot=    1.000000    0.000000    0.000000    0.000000 Ang=   0.00 deg.
 Initial guess orbital symmetries:
       Occupied  (SG) (SG) (SG) (PI) (PI) (SG) (SG) (PI) (PI)
       Virtual   (SG) (SG) (PI) (PI) (SG) (SG) (PI) (PI) (SG) (PI)
                 (PI) (DLTA) (DLTA) (SG) (SG) (PI) (PI) (SG) (SG)
                 (PI) (PI) (SG) (SG) (PI) (PI) (SG) (SG)
 ExpMin= 4.83D-02 ExpMax= 1.06D+05 ExpMxC= 3.62D+03 IAcc=3 IRadAn=         5 AccDes= 0.00D+00
 Harris functional with IExCor=  205 and IRadAn=       5 diagonalized for initial guess.
 HarFok:  IExCor=  205 AccDes= 0.00D+00 IRadAn=         5 IDoV= 1 UseB2=F ITyADJ=14
 ICtDFT=  3500011 ScaDFX=  1.000000  1.000000  1.000000  1.000000
 FoFCou: FMM=F IPFlag=           0 FMFlag=      100000 FMFlg1=           0
         NFxFlg=           0 DoJE=T BraDBF=F KetDBF=T FulRan=T
         wScrn=  0.000000 ICntrl=       500 IOpCl=  0 I1Cent=   200000004 NGrid=           0
         NMat0=    1 NMatS0=      1 NMatT0=    0 NMatD0=    1 NMtDS0=    0 NMtDT0=    0
 Petite list used in FoFCou.
 Keep R1 ints in memory in symmetry-blocked form, NReq=1059082.
 Requested convergence on RMS density matrix=1.00D-08 within 128 cycles.
 Requested convergence on MAX density matrix=1.00D-06.
 Requested convergence on             energy=1.00D-06.
 No special actions if energy rises.
 SCF Done:  E(RHF) =  -459.905995175     A.U. after    9 cycles
            NFock=  9  Conv=0.61D-08     -V/T= 1.9971
 ExpMin= 4.83D-02 ExpMax= 1.06D+05 ExpMxC= 3.62D+03 IAcc=3 IRadAn=         5 AccDes= 0.00D+00
 HarFok:  IExCor=  205 AccDes= 0.00D+00 IRadAn=         5 IDoV=-2 UseB2=F ITyADJ=14
 ICtDFT= 12500011 ScaDFX=  1.000000  1.000000  1.000000  1.000000
 Range of M.O.s used for correlation:     6    36
 NBasis=    36 NAE=     9 NBE=     9 NFC=     5 NFV=     0
 NROrb=     31 NOA=     4 NOB=     4 NVA=    27 NVB=    27
 Semi-Direct transformation.
 ModeAB=           2 MOrb=             4 LenV=     104662600
 LASXX=        14355 LTotXX=       14355 LenRXX=       14355
 LTotAB=       16240 MaxLAS=       87172 LenRXY=       87172
 NonZer=       92008 LenScr=      785920 LnRSAI=           0
 LnScr1=           0 LExtra=           0 Total=       887447
 MaxDsk=          -1 SrtSym=           F ITran=            4
 JobTyp=0 Pass  1:  I=   1 to   4.
 (rs|ai) integrals will be sorted in core.
 Spin components of T(2) and E(2):
     alpha-alpha T2 =       0.5919607192D-02 E2=     -0.1850520646D-01
     alpha-beta  T2 =       0.3418651334D-01 E2=     -0.1120564848D+00
     beta-beta   T2 =       0.5919607192D-02 E2=     -0.1850520646D-01
 ANorm=    0.1022753992D+01
 E2 =    -0.1490668977D+00 EUMP2 =    -0.46005506207266D+03
 Keep R2 and R3 ints in memory in symmetry-blocked form, NReq=1061768.
 CIDS: In Core Option IDoMem=           1.
 Iterations=  50 Convergence= 0.100D-06
 Produce multiple copies of IABC intergrals
 Iteration Nr.   1
 **********************
 DD1Dir will call FoFMem   1 times, MxPair=        20
 NAB=    10 NAA=     0 NBB=     0.
 MP4(R+Q)=  0.23147468D-02
 E3=       -0.14998335D-01        EUMP3=      -0.46007006041D+03
 E4(DQ)=   -0.33230006D-03        UMP4(DQ)=   -0.46007039271D+03
 E4(SDQ)=  -0.76471107D-03        UMP4(SDQ)=  -0.46007082512D+03
 DE(Corr)= -0.16172857     E(Corr)=     -460.06772374    
 NORM(A)=   0.10274659D+01
 Iteration Nr.   2
 **********************
 DD1Dir will call FoFMem   1 times, MxPair=        20
 NAB=    10 NAA=     0 NBB=     0.
 DE(Corr)= -0.16425721     E(CORR)=     -460.07025238     Delta=-2.53D-03
 NORM(A)=   0.10282757D+01
 Iteration Nr.   3
 **********************
 DD1Dir will call FoFMem   1 times, MxPair=        20
 NAB=    10 NAA=     0 NBB=     0.
 DE(Corr)= -0.16473472     E(CORR)=     -460.07072989     Delta=-4.78D-04
 NORM(A)=   0.10283709D+01
 Iteration Nr.   4
 **********************
 DD1Dir will call FoFMem   1 times, MxPair=        20
 NAB=    10 NAA=     0 NBB=     0.
 DE(Corr)= -0.16480188     E(CORR)=     -460.07079705     Delta=-6.72D-05
 NORM(A)=   0.10283842D+01
 Iteration Nr.   5
 **********************
 DD1Dir will call FoFMem   1 times, MxPair=        20
 NAB=    10 NAA=     0 NBB=     0.
 DE(Corr)= -0.16480451     E(CORR)=     -460.07079969     Delta=-2.63D-06
 NORM(A)=   0.10283843D+01
 Iteration Nr.   6
 **********************
 DD1Dir will call FoFMem   1 times, MxPair=        20
 NAB=    10 NAA=     0 NBB=     0.
 DE(Corr)= -0.16480439     E(CORR)=     -460.07079957     Delta= 1.18D-07
 NORM(A)=   0.10283843D+01
 Iteration Nr.   7
 **********************
 DD1Dir will call FoFMem   1 times, MxPair=        20
 NAB=    10 NAA=     0 NBB=     0.
 DE(Corr)= -0.16480439     E(CORR)=     -460.07079957     Delta= 2.66D-09
 NORM(A)=   0.10283843D+01
 Wavefunction amplitudes converged. E(Corr)=     -460.07079957    
 Largest amplitude= 3.36D-02
 Time for triples=        0.23 seconds.
 T4(CCSD)= -0.27096694D-02
 T5(CCSD)=  0.57298498D-04
 CCSD(T)= -0.46007345194D+03
 Discarding MO integrals.
 Variable Step   Value    
 -------- ---- -----------
     1       7    1.795240
 ---------------------------------------------------------------------------------------------------
                            Z-MATRIX (ANGSTROMS AND DEGREES)
   CD    Cent   Atom    N1       Length/X        N2       Alpha/Y        N3        Beta/Z          J
 ---------------------------------------------------------------------------------------------------
      1      1  H 
      2      2  Cl       1   0.950000(     1)
 ---------------------------------------------------------------------------------------------------
                         Z-Matrix orientation:                         
 ---------------------------------------------------------------------
 Center     Atomic      Atomic             Coordinates (Angstroms)
 Number     Number       Type             X           Y           Z
 ---------------------------------------------------------------------
      1          1           0        0.000000    0.000000    0.000000
      2         17           0        0.000000    0.000000    0.950000
 ---------------------------------------------------------------------
 Stoichiometry    ClH
 Framework group  C*V[C*(HCl)]
 Deg. of freedom     1
 Full point group                 C*V     NOp   4
 Largest Abelian subgroup         C2V     NOp   4
 Largest concise Abelian subgroup C1      NOp   1
                         Standard orientation:                         
 ---------------------------------------------------------------------
 Center     Atomic      Atomic             Coordinates (Angstroms)
 Number     Number       Type             X           Y           Z
 ---------------------------------------------------------------------
      1          1           0        0.000000    0.000000   -0.897222
      2         17           0        0.000000    0.000000    0.052778
 ---------------------------------------------------------------------
 Rotational constants (GHZ):           0.0000000         571.6425109         571.6425109
 Standard basis: 6-311+G(d,p) (5D, 7F)
 There are    20 symmetry adapted cartesian basis functions of A1  symmetry.
 There are     1 symmetry adapted cartesian basis functions of A2  symmetry.
 There are     8 symmetry adapted cartesian basis functions of B1  symmetry.
 There are     8 symmetry adapted cartesian basis functions of B2  symmetry.
 There are    19 symmetry adapted basis functions of A1  symmetry.
 There are     1 symmetry adapted basis functions of A2  symmetry.
 There are     8 symmetry adapted basis functions of B1  symmetry.
 There are     8 symmetry adapted basis functions of B2  symmetry.
    36 basis functions,    61 primitive gaussians,    37 cartesian basis functions
     9 alpha electrons        9 beta electrons
       nuclear repulsion energy         9.4694869323 Hartrees.
 NAtoms=    2 NActive=    2 NUniq=    2 SFac= 1.00D+00 NAtFMM=   60 NAOKFM=F Big=F
 Integral buffers will be    131072 words long.
 Raffenetti 1 integral format.
 Two-electron integral symmetry is turned on.
 One-electron integrals computed using PRISM.
 NBasis=    36 RedAO= T EigKep=  1.07D-02  NBF=    19     1     8     8
 NBsUse=    36 1.00D-06 EigRej= -1.00D+00 NBFU=    19     1     8     8
 Initial guess from the checkpoint file:  "/scratch-data/g16-scratch/Gau-129039.chk"
 B after Tr=     0.000000    0.000000   -0.000000
         Rot=    1.000000    0.000000    0.000000    0.000000 Ang=   0.00 deg.
 Initial guess orbital symmetries:
       Occupied  (SG) (SG) (SG) (PI) (PI) (SG) (SG) (PI) (PI)
       Virtual   (SG) (SG) (PI) (PI) (SG) (SG) (PI) (PI) (SG) (PI)
                 (PI) (SG) (DLTA) (DLTA) (SG) (PI) (PI) (SG) (PI)
                 (PI) (SG) (SG) (SG) (PI) (PI) (SG) (SG)
 ExpMin= 4.83D-02 ExpMax= 1.06D+05 ExpMxC= 3.62D+03 IAcc=3 IRadAn=         5 AccDes= 0.00D+00
 Harris functional with IExCor=  205 and IRadAn=       5 diagonalized for initial guess.
 HarFok:  IExCor=  205 AccDes= 0.00D+00 IRadAn=         5 IDoV= 1 UseB2=F ITyADJ=14
 ICtDFT=  3500011 ScaDFX=  1.000000  1.000000  1.000000  1.000000
 FoFCou: FMM=F IPFlag=           0 FMFlag=      100000 FMFlg1=           0
         NFxFlg=           0 DoJE=T BraDBF=F KetDBF=T FulRan=T
         wScrn=  0.000000 ICntrl=       500 IOpCl=  0 I1Cent=   200000004 NGrid=           0
         NMat0=    1 NMatS0=      1 NMatT0=    0 NMatD0=    1 NMtDS0=    0 NMtDT0=    0
 Petite list used in FoFCou.
 Keep R1 ints in memory in symmetry-blocked form, NReq=1059068.
 Requested convergence on RMS density matrix=1.00D-08 within 128 cycles.
 Requested convergence on MAX density matrix=1.00D-06.
 Requested convergence on             energy=1.00D-06.
 No special actions if energy rises.
 SCF Done:  E(RHF) =  -459.968990043     A.U. after    9 cycles
            NFock=  9  Conv=0.19D-08     -V/T= 1.9977
 ExpMin= 4.83D-02 ExpMax= 1.06D+05 ExpMxC= 3.62D+03 IAcc=3 IRadAn=         5 AccDes= 0.00D+00
 HarFok:  IExCor=  205 AccDes= 0.00D+00 IRadAn=         5 IDoV=-2 UseB2=F ITyADJ=14
 ICtDFT= 12500011 ScaDFX=  1.000000  1.000000  1.000000  1.000000
 Range of M.O.s used for correlation:     6    36
 NBasis=    36 NAE=     9 NBE=     9 NFC=     5 NFV=     0
 NROrb=     31 NOA=     4 NOB=     4 NVA=    27 NVB=    27
 Semi-Direct transformation.
 ModeAB=           2 MOrb=             4 LenV=     104662614
 LASXX=        14355 LTotXX=       14355 LenRXX=       14355
 LTotAB=       16240 MaxLAS=       87172 LenRXY=       87172
 NonZer=       92008 LenScr=      785920 LnRSAI=           0
 LnScr1=           0 LExtra=           0 Total=       887447
 MaxDsk=          -1 SrtSym=           F ITran=            4
 JobTyp=0 Pass  1:  I=   1 to   4.
 (rs|ai) integrals will be sorted in core.
 Spin components of T(2) and E(2):
     alpha-alpha T2 =       0.5942349310D-02 E2=     -0.1844005852D-01
     alpha-beta  T2 =       0.3448258694D-01 E2=     -0.1120650689D+00
     beta-beta   T2 =       0.5942349310D-02 E2=     -0.1844005852D-01
 ANorm=    0.1022920958D+01
 E2 =    -0.1489451859D+00 EUMP2 =    -0.46011793522842D+03
 Keep R2 and R3 ints in memory in symmetry-blocked form, NReq=1061754.
 CIDS: In Core Option IDoMem=           1.
 Iterations=  50 Convergence= 0.100D-06
 Produce multiple copies of IABC intergrals
 Iteration Nr.   1
 **********************
 DD1Dir will call FoFMem   1 times, MxPair=        20
 NAB=    10 NAA=     0 NBB=     0.
 MP4(R+Q)=  0.23234495D-02
 E3=       -0.14986762D-01        EUMP3=      -0.46013292199D+03
 E4(DQ)=   -0.34730479D-03        UMP4(DQ)=   -0.46013326930D+03
 E4(SDQ)=  -0.79020485D-03        UMP4(SDQ)=  -0.46013371220D+03
 DE(Corr)= -0.16158580     E(Corr)=     -460.13057584    
 NORM(A)=   0.10276700D+01
 Iteration Nr.   2
 **********************
 DD1Dir will call FoFMem   1 times, MxPair=        20
 NAB=    10 NAA=     0 NBB=     0.
 DE(Corr)= -0.16414379     E(CORR)=     -460.13313383     Delta=-2.56D-03
 NORM(A)=   0.10285044D+01
 Iteration Nr.   3
 **********************
 DD1Dir will call FoFMem   1 times, MxPair=        20
 NAB=    10 NAA=     0 NBB=     0.
 DE(Corr)= -0.16463105     E(CORR)=     -460.13362109     Delta=-4.87D-04
 NORM(A)=   0.10286017D+01
 Iteration Nr.   4
 **********************
 DD1Dir will call FoFMem   1 times, MxPair=        20
 NAB=    10 NAA=     0 NBB=     0.
 DE(Corr)= -0.16470088     E(CORR)=     -460.13369092     Delta=-6.98D-05
 NORM(A)=   0.10286153D+01
 Iteration Nr.   5
 **********************
 DD1Dir will call FoFMem   1 times, MxPair=        20
 NAB=    10 NAA=     0 NBB=     0.
 DE(Corr)= -0.16470362     E(CORR)=     -460.13369367     Delta=-2.75D-06
 NORM(A)=   0.10286155D+01
 Iteration Nr.   6
 **********************
 DD1Dir will call FoFMem   1 times, MxPair=        20
 NAB=    10 NAA=     0 NBB=     0.
 DE(Corr)= -0.16470351     E(CORR)=     -460.13369355     Delta= 1.15D-07
 NORM(A)=   0.10286155D+01
 Iteration Nr.   7
 **********************
 DD1Dir will call FoFMem   1 times, MxPair=        20
 NAB=    10 NAA=     0 NBB=     0.
 DE(Corr)= -0.16470350     E(CORR)=     -460.13369355     Delta= 4.44D-09
 NORM(A)=   0.10286155D+01
 Wavefunction amplitudes converged. E(Corr)=     -460.13369355    
 Largest amplitude= 3.31D-02
 Time for triples=        0.23 seconds.
 T4(CCSD)= -0.27488522D-02
 T5(CCSD)=  0.57997277D-04
 CCSD(T)= -0.46013638440D+03
 Discarding MO integrals.
 Variable Step   Value    
 -------- ---- -----------
     1       8    1.889726
 ---------------------------------------------------------------------------------------------------
                            Z-MATRIX (ANGSTROMS AND DEGREES)
   CD    Cent   Atom    N1       Length/X        N2       Alpha/Y        N3        Beta/Z          J
 ---------------------------------------------------------------------------------------------------
      1      1  H 
      2      2  Cl       1   1.000000(     1)
 ---------------------------------------------------------------------------------------------------
                         Z-Matrix orientation:                         
 ---------------------------------------------------------------------
 Center     Atomic      Atomic             Coordinates (Angstroms)
 Number     Number       Type             X           Y           Z
 ---------------------------------------------------------------------
      1          1           0        0.000000    0.000000    0.000000
      2         17           0        0.000000    0.000000    1.000000
 ---------------------------------------------------------------------
 Stoichiometry    ClH
 Framework group  C*V[C*(HCl)]
 Deg. of freedom     1
 Full point group                 C*V     NOp   4
 Largest Abelian subgroup         C2V     NOp   4
 Largest concise Abelian subgroup C1      NOp   1
                         Standard orientation:                         
 ---------------------------------------------------------------------
 Center     Atomic      Atomic             Coordinates (Angstroms)
 Number     Number       Type             X           Y           Z
 ---------------------------------------------------------------------
      1          1           0        0.000000    0.000000   -0.944444
      2         17           0        0.000000    0.000000    0.055556
 ---------------------------------------------------------------------
 Rotational constants (GHZ):           0.0000000         515.9073661         515.9073661
 Standard basis: 6-311+G(d,p) (5D, 7F)
 There are    20 symmetry adapted cartesian basis functions of A1  symmetry.
 There are     1 symmetry adapted cartesian basis functions of A2  symmetry.
 There are     8 symmetry adapted cartesian basis functions of B1  symmetry.
 There are     8 symmetry adapted cartesian basis functions of B2  symmetry.
 There are    19 symmetry adapted basis functions of A1  symmetry.
 There are     1 symmetry adapted basis functions of A2  symmetry.
 There are     8 symmetry adapted basis functions of B1  symmetry.
 There are     8 symmetry adapted basis functions of B2  symmetry.
    36 basis functions,    61 primitive gaussians,    37 cartesian basis functions
     9 alpha electrons        9 beta electrons
       nuclear repulsion energy         8.9960125856 Hartrees.
 NAtoms=    2 NActive=    2 NUniq=    2 SFac= 1.00D+00 NAtFMM=   60 NAOKFM=F Big=F
 Integral buffers will be    131072 words long.
 Raffenetti 1 integral format.
 Two-electron integral symmetry is turned on.
 One-electron integrals computed using PRISM.
 NBasis=    36 RedAO= T EigKep=  1.23D-02  NBF=    19     1     8     8
 NBsUse=    36 1.00D-06 EigRej= -1.00D+00 NBFU=    19     1     8     8
 Initial guess from the checkpoint file:  "/scratch-data/g16-scratch/Gau-129039.chk"
 B after Tr=     0.000000    0.000000    0.000000
         Rot=    1.000000    0.000000    0.000000    0.000000 Ang=   0.00 deg.
 Initial guess orbital symmetries:
       Occupied  (SG) (SG) (SG) (PI) (PI) (SG) (SG) (PI) (PI)
       Virtual   (SG) (SG) (PI) (PI) (SG) (SG) (PI) (PI) (SG) (PI)
                 (PI) (SG) (DLTA) (DLTA) (SG) (PI) (PI) (SG) (PI)
                 (PI) (SG) (SG) (SG) (PI) (PI) (SG) (SG)
 ExpMin= 4.83D-02 ExpMax= 1.06D+05 ExpMxC= 3.62D+03 IAcc=3 IRadAn=         5 AccDes= 0.00D+00
 Harris functional with IExCor=  205 and IRadAn=       5 diagonalized for initial guess.
 HarFok:  IExCor=  205 AccDes= 0.00D+00 IRadAn=         5 IDoV= 1 UseB2=F ITyADJ=14
 ICtDFT=  3500011 ScaDFX=  1.000000  1.000000  1.000000  1.000000
 FoFCou: FMM=F IPFlag=           0 FMFlag=      100000 FMFlg1=           0
         NFxFlg=           0 DoJE=T BraDBF=F KetDBF=T FulRan=T
         wScrn=  0.000000 ICntrl=       500 IOpCl=  0 I1Cent=   200000004 NGrid=           0
         NMat0=    1 NMatS0=      1 NMatT0=    0 NMatD0=    1 NMtDS0=    0 NMtDT0=    0
 Petite list used in FoFCou.
 Keep R1 ints in memory in symmetry-blocked form, NReq=1059068.
 Requested convergence on RMS density matrix=1.00D-08 within 128 cycles.
 Requested convergence on MAX density matrix=1.00D-06.
 Requested convergence on             energy=1.00D-06.
 No special actions if energy rises.
 SCF Done:  E(RHF) =  -460.014767597     A.U. after    9 cycles
            NFock=  9  Conv=0.19D-08     -V/T= 1.9983
 ExpMin= 4.83D-02 ExpMax= 1.06D+05 ExpMxC= 3.62D+03 IAcc=3 IRadAn=         5 AccDes= 0.00D+00
 HarFok:  IExCor=  205 AccDes= 0.00D+00 IRadAn=         5 IDoV=-2 UseB2=F ITyADJ=14
 ICtDFT= 12500011 ScaDFX=  1.000000  1.000000  1.000000  1.000000
 Range of M.O.s used for correlation:     6    36
 NBasis=    36 NAE=     9 NBE=     9 NFC=     5 NFV=     0
 NROrb=     31 NOA=     4 NOB=     4 NVA=    27 NVB=    27
 Semi-Direct transformation.
 ModeAB=           2 MOrb=             4 LenV=     104662614
 LASXX=        14355 LTotXX=       14355 LenRXX=       14355
 LTotAB=       16240 MaxLAS=       87172 LenRXY=       87172
 NonZer=       92008 LenScr=      785920 LnRSAI=           0
 LnScr1=           0 LExtra=           0 Total=       887447
 MaxDsk=          -1 SrtSym=           F ITran=            4
 JobTyp=0 Pass  1:  I=   1 to   4.
 (rs|ai) integrals will be sorted in core.
 Spin components of T(2) and E(2):
     alpha-alpha T2 =       0.5966477603D-02 E2=     -0.1837814591D-01
[...]
 NORM(A)=   0.14426752D+01
 Iteration Nr.  18
 **********************
 DD1Dir will call FoFMem   1 times, MxPair=        20
 NAB=    10 NAA=     0 NBB=     0.
 DE(Corr)= -0.30877372     E(CORR)=     -460.08280586     Delta=-1.12D-08
 NORM(A)=   0.14426753D+01
 Wavefunction amplitudes converged. E(Corr)=     -460.08280586    
 Dominant configurations:
 ***********************
 Spin Case        I    J    A    B          Value
    AA            9        10           -0.229631D+00
   ABAB           9    9   10   10      -0.931685D+00
 Largest amplitude= 9.32D-01
 Time for triples=        0.23 seconds.
 T4(CCSD)= -0.40372435D-01
 T5(CCSD)= -0.34255485D-03
 CCSD(T)= -0.46012352085D+03
 Discarding MO integrals.
 Scan completed.
 
 Summary of the potential surface scan:
   N     dist         SCF          MP2          MP3    
 ----  ---------  -----------  -----------  -----------
    1     0.6000   -458.74280   -458.89524   -458.91051
    2     0.6500   -459.08997   -459.24134   -459.25653
    3     0.7000   -459.35410   -459.50466   -459.51978
    4     0.7500   -459.55469   -459.70466   -459.71973
    5     0.8000   -459.70647   -459.85602   -459.87106
    6     0.8500   -459.82070   -459.96996   -459.98497
    7     0.9000   -459.90600   -460.05506   -460.07006
    8     0.9500   -459.96899   -460.11794   -460.13292
    9     1.0000   -460.01477   -460.16365   -460.17863
   10     1.0500   -460.04724   -460.19611   -460.21109
   11     1.1000   -460.06943   -460.21833   -460.23331
   12     1.1500   -460.08366   -460.23264   -460.24763
   13     1.2000   -460.09174   -460.24084   -460.25585
   14     1.2500   -460.09507   -460.24435   -460.25939
   15     1.3000   -460.09475   -460.24427   -460.25935
   16     1.3500   -460.09163   -460.24145   -460.25658
   17     1.4000   -460.08639   -460.23657   -460.25179
   18     1.4500   -460.07956   -460.23017   -460.24549
   19     1.5000   -460.07154   -460.22267   -460.23811
   20     1.5500   -460.06268   -460.21441   -460.22998
   21     1.6000   -460.05322   -460.20563   -460.22137
   22     1.6500   -460.04339   -460.19655   -460.21248
   23     1.7000   -460.03332   -460.18733   -460.20347
   24     1.7500   -460.02317   -460.17809   -460.19447
   25     1.8000   -460.01302   -460.16894   -460.18559
   26     1.8500   -460.00296   -460.15996   -460.17690
   27     1.9000   -459.99305   -460.15120   -460.16846
   28     1.9500   -459.98335   -460.14272   -460.16033
   29     2.0000   -459.97388   -460.13455   -460.15254
   30     2.0500   -459.96469   -460.12672   -460.14511
   31     2.1000   -459.95579   -460.11924   -460.13808
   32     2.1500   -459.94720   -460.11214   -460.13144
   33     2.2000   -459.93892   -460.10540   -460.12521
   34     2.2500   -459.93095   -460.09905   -460.11938
   35     2.3000   -459.92330   -460.09306   -460.11395
   36     2.3500   -459.91595   -460.08744   -460.10892
   37     2.4000   -459.90890   -460.08217   -460.10427
   38     2.4500   -459.90215   -460.07725   -460.09999
   39     2.5000   -459.89567   -460.07267   -460.09608
   40     2.5500   -459.88946   -460.06841   -460.09253
   41     2.6000   -459.88352   -460.06447   -460.08932
   42     2.6500   -459.87782   -460.06082   -460.08643
   43     2.7000   -459.87236   -460.05747   -460.08387
   44     2.7500   -459.86713   -460.05440   -460.08162
   45     2.8000   -459.86212   -460.05160   -460.07966
   46     2.8500   -459.85732   -460.04906   -460.07800
   47     2.9000   -459.85273   -460.04678   -460.07662
   48     2.9500   -459.84832   -460.04474   -460.07551
   49     3.0000   -459.84410   -460.04293   -460.07466
   50     3.0500   -459.84005   -460.04135   -460.07406
   51     3.1000   -459.83618   -460.03999   -460.07371
   52     3.1500   -459.83247   -460.03883   -460.07360
   53     3.2000   -459.82891   -460.03789   -460.07371
   54     3.2500   -459.82551   -460.03713   -460.07404
   55     3.3000   -459.82225   -460.03656   -460.07458
   56     3.3500   -459.81912   -460.03617   -460.07532
   57     3.4000   -459.81613   -460.03596   -460.07626
   58     3.4500   -459.81326   -460.03591   -460.07738
   59     3.5000   -459.81051   -460.03602   -460.07868
   60     3.5500   -459.80788   -460.03628   -460.08014
   61     3.6000   -459.80535   -460.03668   -460.08177
   62     3.6500   -459.80294   -460.03722   -460.08355
   63     3.7000   -459.80062   -460.03790   -460.08547
   64     3.7500   -459.79840   -460.03870   -460.08753
   65     3.8000   -459.79627   -460.03962   -460.08972
   66     3.8500   -459.79422   -460.04065   -460.09204
   67     3.9000   -459.79226   -460.04179   -460.09446
   68     3.9500   -459.79038   -460.04303   -460.09700
   69     4.0000   -459.78858   -460.04437   -460.09964
   70     4.0500   -459.78685   -460.04580   -460.10237
   71     4.1000   -459.78519   -460.04732   -460.10519
   72     4.1500   -459.78359   -460.04892   -460.10810
   73     4.2000   -459.78206   -460.05060   -460.11108
   74     4.2500   -459.78059   -460.05235   -460.11413
   75     4.3000   -459.77917   -460.05417   -460.11725
   76     4.3500   -459.77781   -460.05605   -460.12044
   77     4.4000   -459.77650   -460.05800   -460.12367
   78     4.4500   -459.77524   -460.06000   -460.12696
   79     4.5000   -459.77403   -460.06206   -460.13030
 ----  ---------  -----------  -----------  -----------
  
 1\1\GINC-SUGARCUBE\Scan\RCCSD(T)-FC\6-311+G(d,p)\Cl1H1\JUPYTER-BRANDON
 C\17-Apr-2023\1\\# CCSD(T) 6-311+g(d,p) # scan scf=tight\\Scan of HCl 
 Bond using CCSD(T) Method\\0,1\H\Cl,1,dist\\dist=0.6,s,78,0.05\\Versio
 n=ES64L-G16RevB.01\HF=-458.7428007,-459.0899678,-459.3541031,-459.5546
 891,-459.7064688,-459.8206954,-459.9059952,-459.96899,-460.0147676,-46
 0.0472415,-460.0694283,-460.0836585,-460.0917381,-460.0950705,-460.094
 7503,-460.0916339,-460.0863935,-460.0795577,-460.0715434,-460.0626792,
 -460.0532249,-460.0433854,-460.0333231,-460.0231665,-460.0130176,-460.
 0029574,-459.99305,-459.9833458,-459.9738837,-459.9646928,-459.9557938
 ,-459.9472,-459.9389187,-459.9309519,-459.9232974,-459.9159502,-459.90
 89028,-459.9021461,-459.8956703,-459.8894647,-459.8835188,-459.877822,
 -459.872364,-459.8671347,-459.8621246,-459.8573244,-459.8527255,-459.8
 483194,-459.8440981,-459.8400541,-459.8361799,-459.8324686,-459.828913
 4,-459.8255078,-459.8222454,-459.8191201,-459.8161263,-459.813258,-459
 .81051,-459.807877,-459.8053539,-459.8029358,-459.8006181,-459.7983962
 ,-459.796266,-459.7942232,-459.7922639,-459.7903843,-459.7885808,-459.
 7868498,-459.7851882,-459.7835926,-459.78206,-459.7805874,-459.7791722
 ,-459.7778116,-459.7765029,-459.7752439,-459.7740321\MP2=-458.8952363,
 -459.2413355,-459.5046611,-459.7046577,-459.8560198,-459.9699568,-460.
 0550621,-460.1179352,-460.1636496,-460.1961104,-460.21833,-460.2326384
 ,-460.2408436,-460.2443531,-460.2442669,-460.2414471,-460.2365715,-460
 .2301739,-460.222675,-460.2144064,-460.2056292,-460.1965491,-460.18732
 77,-460.1780924,-460.1689432,-460.1599592,-460.1512021,-460.14272,-460
 .1345496,-460.1267177,-460.1192429,-460.1121366,-460.1054043,-460.0990
 465,-460.0930598,-460.0874378,-460.0821722,-460.077253,-460.0726695,-4
 60.0684106,-460.0644652,-460.0608222,-460.0574708,-460.0544007,-460.05
 16016,-460.0490642,-460.046779,-460.0447372,-460.0429302,-460.0413495,
 -460.0399871,-460.0388349,-460.0378851,-460.0371302,-460.0365625,-460.
 0361746,-460.0359593,-460.0359092,-460.0360175,-460.0362773,-460.03668
 16,-460.0372241,-460.0378983,-460.0386978,-460.0396168,-460.0406493,-4
 60.0417895,-460.0430321,-460.0443716,-460.0458029,-460.0473212,-460.04
 89215,-460.0505994,-460.0523504,-460.0541703,-460.056055,-460.0580006,
 -460.0600034,-460.0620598\MP3=-458.9105124,-459.2565255,-459.5197833,-
 459.7197309,-459.8710587,-459.9849719,-460.0700604,-460.132922,-460.17
 86291,-460.211087,-460.2333091,-460.2476267,-460.2558499,-460.2593886,
 -460.2593452,-460.2565843,-460.251786,-460.2454857,-460.2381058,-460.2
 299789,-460.221367,-460.2124763,-460.203469,-460.1944731,-460.1855895,
 -460.1768979,-460.1684612,-460.1603281,-460.1525362,-460.1451127,-460.
 1380766,-460.1314394,-460.1252063,-460.1193775,-460.1139495,-460.10891
 55,-460.1042668,-460.0999934,-460.0960844,-460.0925286,-460.089315,-46
 0.0864324,-460.0838701,-460.0816177,-460.079665,-460.0780022,-460.0766
 199,-460.0755088,-460.0746599,-460.0740642,-460.0737131,-460.0735978,-
 460.0737098,-460.0740405,-460.0745813,-460.0753238,-460.0762596,-460.0
 773803,-460.0786776,-460.0801435,-460.0817697,-460.0835485,-460.085472
 ,-460.0875326,-460.0897228,-460.0920353,-460.0944632,-460.0969995,-460
 .0996374,-460.1023707,-460.1051929,-460.1080981,-460.1110805,-460.1141
 345,-460.1172546,-460.1204359,-460.1236733,-460.1269621,-460.130298\MP
 4D=-458.913142,-459.2591413,-459.5223927,-459.7223409,-459.8736755,-45
 9.9876011,-460.0727075,-460.1355927,-460.18133,-460.2138255,-460.23609
 34,-460.2504666,-460.2587563,-460.2623741,-460.2624241,-460.2597723,-4
 60.2551004,-460.2489454,-460.2417309,-460.2337909,-460.2253885,-460.21
 6731,-460.2079822,-460.1992711,-460.1907,-460.18235,-460.1742852,-460.
 1665557,-460.1591999,-460.1522464,-460.1457148,-460.1396174,-460.13396
 03,-460.1287444,-460.1239667,-460.1196213,-460.1157002,-460.1121942,-4
 60.1090933,-460.1063872,-460.1040654,-460.1021178,-460.1005341,-460.09
 93046,-460.0984196,-460.0978698,-460.0976458,-460.0977386,-460.0981391
 ,-460.0988381,-460.0998266,-460.1010953,-460.1026351,-460.1044366,-460
 .1064902,-460.1087865,-460.1113159,-460.1140685,-460.1170349,-460.1202
 052,-460.1235699,-460.1271193,-460.1308439,-460.1347345,-460.1387816,-
 460.1429763,-460.1473097,-460.1517731,-460.156358,-460.1610561,-460.16
 58596,-460.1707606,-460.1757517,-460.1808258,-460.1859759,-460.1911953
 ,-460.196478,-460.2018177,-460.2072089\MP4DQ=-458.9107908,-459.2568104
 ,-459.5200752,-459.7200308,-459.8713679,-459.9852917,-460.0703927,-460
 .1332693,-460.1789947,-460.2114751,-460.2337245,-460.2480754,-460.2563
 385,-460.2599246,-460.259937,-460.257241,-460.2525171,-460.2463014,-46
 0.2390164,-460.2309949,-460.2224988,-460.2137345,-460.204864,-460.1960
 153,-460.1872893,-460.1787654,-460.1705064,-460.1625606,-460.154965,-4
 60.1477464,-460.1409226,-460.1345042,-460.1284952,-460.1228945,-460.11
 76969,-460.112894,-460.1084752,-460.1044286,-460.100741,-460.0973989,-
 460.0943886,-460.091696,-460.0893073,-460.0872086,-460.0853862,-460.08
 38263,-460.0825152,-460.0814392,-460.0805845,-460.0799371,-460.079483,
 -460.079208,-460.0790978,-460.0791379,-460.0793138,-460.0796109,-460.0
 800143,-460.0805094,-460.0810814,-460.0817158,-460.0823979,-460.083113
 5,-460.0838483,-460.0845885,-460.0853204,-460.0860306,-460.0867061,-46
 0.0873342,-460.0879027,-460.0883997,-460.0888137,-460.0891336,-460.089
 3489,-460.0894494,-460.0894254,-460.0892677,-460.0889675,-460.0885164,
 -460.0879065\MP4SDQ=-458.9111925,-459.257216,-459.5204842,-459.7204437
 ,-459.8717857,-459.9857159,-460.0708251,-460.1337122,-460.1794507,-460
 .2119471,-460.2342158,-460.2485897,-460.2568799,-460.2604976,-460.2605
 463,-460.2578918,-460.253215,-460.2470523,-460.2398267,-460.2318713,-4
 60.223449,-460.2147665,-460.2059868,-460.1972389,-460.1886245,-460.180
 2247,-460.1721031,-460.1643098,-460.1568832,-460.1498515,-460.1432346,
 -460.1370448,-460.1312879,-460.1259652,-460.1210736,-460.1166075,-460.
 1125591,-460.1089194,-460.1056787,-460.102827,-460.1003544,-460.098250
 9,-460.0965069,-460.0951131,-460.0940603,-460.0933395,-460.0929421,-46
 0.0928592,-460.0930823,-460.0936027,-460.0944116,-460.0955001,-460.096
 8593,-460.0984798,-460.1003522,-460.1024671,-460.1048147,-460.1073851,
 -460.1101683,-460.1131541,-460.1163323,-460.1196929,-460.1232254,-460.
 1269197,-460.1307655,-460.1347528,-460.1388714,-460.1431116,-460.14746
 35,-460.1519174,-460.1564639,-460.1610938,-460.1657981,-460.1705679,-4
 60.1753947,-460.1802702,-460.1851864,-460.1901356,-460.1951103\CCSD=-4
 58.9111599,-459.2571833,-459.5204513,-459.7204108,-459.8717537,-459.98
 56861,-460.0707996,-460.1336935,-460.1794423,-460.2119532,-460.2342415
 ,-460.2486411,-460.2569641,-460.2606231,-460.2607228,-460.2581303,-460
 .2535279,-460.2474531,-460.2403303,-460.2324939,-460.2242075,-460.2156
 791,-460.2070724,-460.1985167,-460.190114,-460.1819449,-460.174072,-46
 0.1665436,-460.1593955,-460.1526523,-460.1463292,-460.1404328,-460.134
 9621,-460.129911,-460.1252662,-460.1210123,-460.1171307,-460.1136003,-
 460.1103992,-460.1075046,-460.1048935,-460.1025435,-460.1004322,-460.0
 985392,-460.0968438,-460.0953274,-460.0939725,-460.0927629,-460.091683
 6,-460.0907209,-460.0898626,-460.0890973,-460.088415,-460.0878065,-460
 .0872635,-460.0867789,-460.086346,-460.0859589,-460.0856125,-460.08530
 21,-460.0850236,-460.0847734,-460.0845483,-460.0843454,-460.0841622,-4
 60.0839966,-460.0838467,-460.0837106,-460.0835869,-460.0834742,-460.08
 33715,-460.0832777,-460.083192,-460.0831133,-460.0830412,-460.0829747,
 -460.0829139,-460.0828577,-460.0828059\CCSD(T)=-458.9137557,-459.25976
 59,-459.5230297,-459.7229945,-459.8743518,-459.9883073,-460.0734519,-4
 60.1363844,-460.1821785,-460.2147412,-460.2370878,-460.2515524,-460.25
 99478,-460.2636873,-460.2638765,-460.2613838,-460.2568927,-460.2509421
 ,-460.2439578,-460.236276,-460.2281619,-460.2198251,-460.2114314,-460.
 2031121,-460.1949715,-460.1870922,-460.1795394,-460.1723636,-460.16560
 28,-460.1592839,-460.1534238,-460.148031,-460.1431058,-460.1386432,-46
 0.13463,-460.131051,-460.1278867,-460.1251152,-460.1227124,-460.120653
 1,-460.1189114,-460.117461,-460.1162758,-460.115331,-460.1146011,-460.
 1140629,-460.1136941,-460.1134736,-460.113382,-460.1134013,-460.113515
 1,-460.1137084,-460.1139678,-460.1142813,-460.114638,-460.1150284,-460
 .1154443,-460.1158784,-460.1163243,-460.1167768,-460.1172312,-460.1176
 835,-460.1181307,-460.1185701,-460.1189995,-460.1194173,-460.1198221,-
 460.1202129,-460.120589,-460.1209499,-460.1212955,-460.1216256,-460.12
 19404,-460.1222398,-460.1225244,-460.122794,-460.12305,-460.123292,-46
 0.1235208\RMSD=8.537e-09,2.356e-09,1.798e-09,1.277e-09,1.097e-09,1.359
 e-09,6.097e-09,1.918e-09,1.915e-09,1.865e-09,1.627e-09,6.924e-09,7.487
 e-09,1.859e-09,1.888e-09,1.849e-09,1.813e-09,1.782e-09,1.756e-09,1.734
 e-09,1.717e-09,1.702e-09,1.689e-09,1.676e-09,1.660e-09,4.134e-09,1.637
 e-09,1.611e-09,1.586e-09,1.561e-09,1.533e-09,1.496e-09,1.445e-09,1.379
 e-09,1.299e-09,1.208e-09,9.582e-09,8.843e-09,8.111e-09,7.398e-09,6.720
 e-09,6.089e-09,5.522e-09,5.034e-09,4.638e-09,4.337e-09,4.126e-09,3.994
 e-09,3.924e-09,3.904e-09,3.923e-09,3.976e-09,4.060e-09,4.170e-09,4.299
 e-09,4.432e-09,4.554e-09,4.642e-09,4.675e-09,4.634e-09,4.501e-09,4.266
 e-09,3.929e-09,3.503e-09,3.009e-09,2.492e-09,2.010e-09,9.792e-09,9.162
 e-09,8.718e-09,8.431e-09,8.255e-09,8.146e-09,8.060e-09,7.954e-09,7.795
 e-09,7.553e-09,7.225e-09,6.881e-09\PG=C*V [C*(H1Cl1)]\\@


                                                                                    A
                                                                                  AA
                                                                                 AAA
                                                                                AAAA
                                                                               AAAAA
                                                                              AAAAAA   KKKKKKKK
                                                                             AAAAAAA   KKKKKKKK
                                                                            AAAAAAAA   KKKKKKKK
                                       ZZZZZZZZZZZZZZZZZZZZ                AAAA  AAA   KKKKKKKK
                                       ZZZZZZZZZZZZZZZZZZZ                AAAA   AAA   KKKKKKKK          K
                                       ZZZZZZZZZZZZZZZZZZ                AAAA    AAA   KKKKKKKK         KKK
                                       ZZZZZZZZZZZZZZZZZ                AAAA     AAA   KKKKKKKK        KKKKK
                                       ZZZZZZZZZZZZZZZZ                AAAA      AAA   KKKKKKKK       KKKKKKK
                                                ZZZZZZ                AAAA       AAA   KKKKKKKK      KKKKKKK
                                               ZZZZZZ                AAAA        AAA   KKKKKKKK     KKKKKKK
                                              ZZZZZZ                AAAA         AAA   KKKKKKKK    KKKKKKK
                                             ZZZZZZ                AAAA          AAA   KKKKKKKK   KKKKKKK
                                            ZZZZZZ                AAAAAAAAAAAAAAAAAA   KKKKKKKK  KKKKKKK
                                           ZZZZZZ                AAAAAAAAAAAAAAAAAAA   KKKKKKKK KKKKKKK
                                          ZZZZZZ                AAAAAAAAAAAAAAAAAAAA   KKKKKKKKKKKKKKK
                                         ZZZZZZ                AAAAAAAAAAAAAAAAAAAAA   KKKKKKKKKKKKKK
                                        ZZZZZZ                AAAAAA        AAAAAAAA   KKKKKKKKKKKKK
                                       ZZZZZZ                AAAAAA         AAAAAAAA   KKKKKKKKKKKK
                                      ZZZZZZ                AAAAAA          AAAAAAAA   KKKKKKKKKKK
                                     ZZZZZZ                AAAAAA           AAAAAAAA   KKKKKKKKKKKK
                                    ZZZZZZ                AAAAAA            AAAAAAAA   KKKKKKKKKKKKK
                                   ZZZZZZ                AAAAAA             AAAAAAAA   KKKKKKKKKKKKKK
                                  ZZZZZZ                AAAAAA              AAAAAAAA   KKKKKKKKKKKKKKK
                                 ZZZZZZ                AAAAAA               AAAAAAAA   KKKKK KKKKKKKKKK
                                ZZZZZZ                AAAAAA                AAAAAAAA   KKKKK  KKKKKKKKKK
                               ZZZZZZ                AAAAAA                            KKKKK   KKKKKKKKKK
                              ZZZZZZ                AAAAAA                             KKKKK    KKKKKKKKKK
                             ZZZZZZ                                                    KKKKK     KKKKKKKKKK
                            ZZZZZZ                                                     KKKKK      KKKKKKKKKK
                           ZZZZZZ                                                      KKKKK       KKKKKKKKKK
                          ZZZZZZ                                                       KKKKK        KKKKKKKKKK
                         ZZZZZZZZZZZZZZZZZZZZZZZZZZZZZZZZZZZZZZZZ                      KKKKK         KKKKKKKKKK
                        ZZZZZZZZZZZZZZZZZZZZZZZZZZZZZZZZZZZZZZZZZ                      KKKKK          KKKKKKKKKK
                       ZZZZZZZZZZZZZZZZZZZZZZZZZZZZZZZZZZZZZZZZZZ                      KKKKK           KKKKKKKKKK
                       ZZZZZZZZZZZZZZZZZZZZZZZZZZZZZZZZZZZZZZZZZZ                      KKKKK            KKKKKKKKKK
                       ZZZZZZZZZZZZZZZZZZZZZZZZZZZZZZZZZZZZZZZZZZ                      KKKKK             KKKKKKKKKK
                       ZZZZZZZZZZZZZZZZZZZZZZZZZZZZZZZZZZZZZZZZZZ                      KKKKK              KKKKKKKKKK
                       ZZZZZZZZZZZZZZZZZZZZZZZZZZZZZZZZZZZZZZZZZZ                      KKKKK               KKKKKKKKKK
                       ZZZZZZZZZZZZZZZZZZZZZZZZZZZZZZZZZZZZZZZZZZ                      KKKKK                KKKKKKKKKK
                       ZZZZZZZZZZZZZZZZZZZZZZZZZZZZZZZZZZZZZZZZZZ                      KKKKK
                                                                                       KKKKK
                                                                                          (J.P.)
 Job cpu time:       0 days  0 hours  2 minutes  5.6 seconds.
 Elapsed time:       0 days  0 hours  1 minutes  2.4 seconds.
 File lengths (MBytes):  RWF=     21 Int=      0 D2E=      0 Chk=      2 Scr=      1
 Normal termination of Gaussian 16 at Mon Apr 17 13:35:42 2023.
